MODEL 1
REMARK VINA RESULT:      -6.0      0.000      0.000
REMARK  Name = orig_f12_ligand
REMARK  12 active torsions:
REMARK  status: ('A' for Active; 'I' for Inactive)
REMARK    1  A    between atoms: C_1  and  C_2
REMARK    2  A    between atoms: C_2  and  C_3
REMARK    3  A    between atoms: C_3  and  C_4
REMARK    4  A    between atoms: C_4  and  C_5
REMARK    5  A    between atoms: C_5  and  C_6
REMARK    6  A    between atoms: C_5  and  O_8
REMARK    7  A    between atoms: C_6  and  C_7
REMARK    8  A    between atoms: O_8  and  C_9
REMARK    9  A    between atoms: C_9  and  C_11
REMARK   10  A    between atoms: C_12  and  C_13
REMARK   11  A    between atoms: C_16  and  O_17
REMARK   12  A    between atoms: O_17  and  C_18
REMARK                            x       y       z     vdW  Elec       q    Type
REMARK                         _______ _______ _______ _____ _____    ______ ____
ROOT
ATOM      1  C   UNL     1      -3.353   2.361  -2.242  0.00  0.00    +0.000 C 
ATOM      2  O   UNL     1      -3.421   3.483  -2.697  0.00  0.00    +0.000 OA
ENDROOT
BRANCH   1   3
ATOM      3  C   UNL     1      -3.485   1.133  -3.037  0.00  0.00    +0.000 C 
ATOM      4  C   UNL     1      -3.351   1.196  -4.367  0.00  0.00    +0.000 C 
BRANCH   4   5
ATOM      5  C   UNL     1      -3.586   0.034  -5.241  0.00  0.00    +0.000 A 
ATOM      6  C   UNL     1      -2.552  -0.695  -5.783  0.00  0.00    +0.000 A 
ATOM      7  C   UNL     1      -2.809  -1.805  -6.571  0.00  0.00    +0.000 A 
ATOM      8  C   UNL     1      -4.101  -2.179  -6.825  0.00  0.00    +0.000 A 
ATOM      9  C   UNL     1      -5.147  -1.455  -6.282  0.00  0.00    +0.000 A 
ATOM     10  C   UNL     1      -4.883  -0.338  -5.499  0.00  0.00    +0.000 A 
BRANCH   8  11
ATOM     11  O   UNL     1      -4.415  -3.273  -7.579  0.00  0.00    +0.000 OA
ATOM     12  C   UNL     1      -5.553  -4.058  -7.248  0.00  0.00    +0.000 C 
ENDBRANCH   8  11
ENDBRANCH   4   5
ENDBRANCH   1   3
BRANCH   1  13
ATOM     13  O   UNL     1      -3.198   2.116  -0.949  0.00  0.00    +0.000 OA
BRANCH  13  14
ATOM     14  C   UNL     1      -2.408   2.988  -0.176  0.00  0.00    +0.000 C 
BRANCH  14  15
ATOM     15  C   UNL     1      -3.304   3.970   0.563  0.00  0.00    +0.000 C 
ATOM     16  C   UNL     1      -2.810   5.404   0.579  0.00  0.00    +0.000 C 
ENDBRANCH  14  15
BRANCH  14  17
ATOM     17  C   UNL     1      -1.590   2.164   0.794  0.00  0.00    +0.000 C 
BRANCH  17  18
ATOM     18  C   UNL     1      -0.170   1.968   0.376  0.00  0.00    +0.000 C 
BRANCH  18  20
ATOM     19  C   UNL     1      -0.453   0.231  -1.393  0.00  0.00    +0.000 C 
ATOM     20  C   UNL     1       0.104   0.547  -0.026  0.00  0.00    +0.000 C 
ENDBRANCH  18  20
ENDBRANCH  17  18
ENDBRANCH  14  17
ENDBRANCH  13  14
ENDBRANCH   1  13
TORSDOF 9
ENDMDL
MODEL 2
REMARK VINA RESULT:      -6.0      1.762      7.348
REMARK  Name = orig_f12_ligand
REMARK  12 active torsions:
REMARK  status: ('A' for Active; 'I' for Inactive)
REMARK    1  A    between atoms: C_1  and  C_2
REMARK    2  A    between atoms: C_2  and  C_3
REMARK    3  A    between atoms: C_3  and  C_4
REMARK    4  A    between atoms: C_4  and  C_5
REMARK    5  A    between atoms: C_5  and  C_6
REMARK    6  A    between atoms: C_5  and  O_8
REMARK    7  A    between atoms: C_6  and  C_7
REMARK    8  A    between atoms: O_8  and  C_9
REMARK    9  A    between atoms: C_9  and  C_11
REMARK   10  A    between atoms: C_12  and  C_13
REMARK   11  A    between atoms: C_16  and  O_17
REMARK   12  A    between atoms: O_17  and  C_18
REMARK                            x       y       z     vdW  Elec       q    Type
REMARK                         _______ _______ _______ _____ _____    ______ ____
ROOT
ATOM      1  C   UNL     1      -5.591  -0.569  -5.334  0.00  0.00    +0.000 C 
ATOM      2  O   UNL     1      -6.790  -0.749  -5.338  0.00  0.00    +0.000 OA
ENDROOT
BRANCH   1   3
ATOM      3  C   UNL     1      -4.810  -0.192  -4.149  0.00  0.00    +0.000 C 
ATOM      4  C   UNL     1      -4.065   0.919  -4.181  0.00  0.00    +0.000 C 
BRANCH   4   5
ATOM      5  C   UNL     1      -3.165   1.299  -3.080  0.00  0.00    +0.000 A 
ATOM      6  C   UNL     1      -2.077   0.533  -2.725  0.00  0.00    +0.000 A 
ATOM      7  C   UNL     1      -1.230   0.941  -1.708  0.00  0.00    +0.000 A 
ATOM      8  C   UNL     1      -1.477   2.109  -1.038  0.00  0.00    +0.000 A 
ATOM      9  C   UNL     1      -2.565   2.886  -1.389  0.00  0.00    +0.000 A 
ATOM     10  C   UNL     1      -3.417   2.469  -2.405  0.00  0.00    +0.000 A 
BRANCH   8  11
ATOM     11  O   UNL     1      -0.668   2.569  -0.039  0.00  0.00    +0.000 OA
ATOM     12  C   UNL     1       0.393   1.753   0.444  0.00  0.00    +0.000 C 
ENDBRANCH   8  11
ENDBRANCH   4   5
ENDBRANCH   1   3
BRANCH   1  13
ATOM     13  O   UNL     1      -4.848  -0.645  -6.429  0.00  0.00    +0.000 OA
BRANCH  13  14
ATOM     14  C   UNL     1      -4.407  -1.906  -6.871  0.00  0.00    +0.000 C 
BRANCH  14  15
ATOM     15  C   UNL     1      -5.298  -2.392  -8.004  0.00  0.00    +0.000 C 
ATOM     16  C   UNL     1      -6.071  -3.665  -7.713  0.00  0.00    +0.000 C 
ENDBRANCH  14  15
BRANCH  14  17
ATOM     17  C   UNL     1      -2.970  -1.780  -7.329  0.00  0.00    +0.000 C 
BRANCH  17  18
ATOM     18  C   UNL     1      -2.063  -1.161  -6.316  0.00  0.00    +0.000 C 
BRANCH  18  20
ATOM     19  C   UNL     1      -0.483   0.706  -5.823  0.00  0.00    +0.000 C 
ATOM     20  C   UNL     1      -1.452   0.115  -6.819  0.00  0.00    +0.000 C 
ENDBRANCH  18  20
ENDBRANCH  17  18
ENDBRANCH  14  17
ENDBRANCH  13  14
ENDBRANCH   1  13
TORSDOF 9
ENDMDL
MODEL 3
REMARK VINA RESULT:      -5.9      1.725      8.117
REMARK  Name = orig_f12_ligand
REMARK  12 active torsions:
REMARK  status: ('A' for Active; 'I' for Inactive)
REMARK    1  A    between atoms: C_1  and  C_2
REMARK    2  A    between atoms: C_2  and  C_3
REMARK    3  A    between atoms: C_3  and  C_4
REMARK    4  A    between atoms: C_4  and  C_5
REMARK    5  A    between atoms: C_5  and  C_6
REMARK    6  A    between atoms: C_5  and  O_8
REMARK    7  A    between atoms: C_6  and  C_7
REMARK    8  A    between atoms: O_8  and  C_9
REMARK    9  A    between atoms: C_9  and  C_11
REMARK   10  A    between atoms: C_12  and  C_13
REMARK   11  A    between atoms: C_16  and  O_17
REMARK   12  A    between atoms: O_17  and  C_18
REMARK                            x       y       z     vdW  Elec       q    Type
REMARK                         _______ _______ _______ _____ _____    ______ ____
ROOT
ATOM      1  C   UNL     1      -2.631  -1.006  -6.416  0.00  0.00    +0.000 C 
ATOM      2  O   UNL     1      -2.036  -1.068  -7.470  0.00  0.00    +0.000 OA
ENDROOT
BRANCH   1   3
ATOM      3  C   UNL     1      -2.154  -0.275  -5.234  0.00  0.00    +0.000 C 
ATOM      4  C   UNL     1      -3.036   0.125  -4.312  0.00  0.00    +0.000 C 
BRANCH   4   5
ATOM      5  C   UNL     1      -2.653   0.963  -3.162  0.00  0.00    +0.000 A 
ATOM      6  C   UNL     1      -3.410   2.038  -2.756  0.00  0.00    +0.000 A 
ATOM      7  C   UNL     1      -3.039   2.782  -1.647  0.00  0.00    +0.000 A 
ATOM      8  C   UNL     1      -1.906   2.455  -0.952  0.00  0.00    +0.000 A 
ATOM      9  C   UNL     1      -1.142   1.374  -1.350  0.00  0.00    +0.000 A 
ATOM     10  C   UNL     1      -1.514   0.638  -2.468  0.00  0.00    +0.000 A 
BRANCH   8  11
ATOM     11  O   UNL     1      -1.502   3.140   0.158  0.00  0.00    +0.000 OA
ATOM     12  C   UNL     1      -0.781   2.466   1.182  0.00  0.00    +0.000 C 
ENDBRANCH   8  11
ENDBRANCH   4   5
ENDBRANCH   1   3
BRANCH   1  13
ATOM     13  O   UNL     1      -3.773  -1.641  -6.194  0.00  0.00    +0.000 OA
BRANCH  13  14
ATOM     14  C   UNL     1      -4.487  -2.167  -7.286  0.00  0.00    +0.000 C 
BRANCH  14  15
ATOM     15  C   UNL     1      -4.470  -3.687  -7.224  0.00  0.00    +0.000 C 
ATOM     16  C   UNL     1      -5.680  -4.369  -7.833  0.00  0.00    +0.000 C 
ENDBRANCH  14  15
BRANCH  14  17
ATOM     17  C   UNL     1      -5.904  -1.639  -7.235  0.00  0.00    +0.000 C 
BRANCH  17  18
ATOM     18  C   UNL     1      -6.343  -1.213  -5.872  0.00  0.00    +0.000 C 
BRANCH  18  20
ATOM     19  C   UNL     1      -8.204  -2.821  -5.449  0.00  0.00    +0.000 C 
ATOM     20  C   UNL     1      -7.824  -1.379  -5.684  0.00  0.00    +0.000 C 
ENDBRANCH  18  20
ENDBRANCH  17  18
ENDBRANCH  14  17
ENDBRANCH  13  14
ENDBRANCH   1  13
TORSDOF 9
ENDMDL
MODEL 4
REMARK VINA RESULT:      -5.9      1.810      8.037
REMARK  Name = orig_f12_ligand
REMARK  12 active torsions:
REMARK  status: ('A' for Active; 'I' for Inactive)
REMARK    1  A    between atoms: C_1  and  C_2
REMARK    2  A    between atoms: C_2  and  C_3
REMARK    3  A    between atoms: C_3  and  C_4
REMARK    4  A    between atoms: C_4  and  C_5
REMARK    5  A    between atoms: C_5  and  C_6
REMARK    6  A    between atoms: C_5  and  O_8
REMARK    7  A    between atoms: C_6  and  C_7
REMARK    8  A    between atoms: O_8  and  C_9
REMARK    9  A    between atoms: C_9  and  C_11
REMARK   10  A    between atoms: C_12  and  C_13
REMARK   11  A    between atoms: C_16  and  O_17
REMARK   12  A    between atoms: O_17  and  C_18
REMARK                            x       y       z     vdW  Elec       q    Type
REMARK                         _______ _______ _______ _____ _____    ______ ____
ROOT
ATOM      1  C   UNL     1      -5.387  -0.608  -5.683  0.00  0.00    +0.000 C 
ATOM      2  O   UNL     1      -6.130   0.050  -6.378  0.00  0.00    +0.000 OA
ENDROOT
BRANCH   1   3
ATOM      3  C   UNL     1      -4.760  -0.125  -4.446  0.00  0.00    +0.000 C 
ATOM      4  C   UNL     1      -3.770   0.772  -4.521  0.00  0.00    +0.000 C 
BRANCH   4   5
ATOM      5  C   UNL     1      -3.014   1.215  -3.337  0.00  0.00    +0.000 A 
ATOM      6  C   UNL     1      -1.842   0.607  -2.947  0.00  0.00    +0.000 A 
ATOM      7  C   UNL     1      -1.137   1.074  -1.850  0.00  0.00    +0.000 A 
ATOM      8  C   UNL     1      -1.610   2.142  -1.136  0.00  0.00    +0.000 A 
ATOM      9  C   UNL     1      -2.785   2.761  -1.521  0.00  0.00    +0.000 A 
ATOM     10  C   UNL     1      -3.492   2.283  -2.618  0.00  0.00    +0.000 A 
BRANCH   8  11
ATOM     11  O   UNL     1      -0.950   2.655  -0.057  0.00  0.00    +0.000 OA
ATOM     12  C   UNL     1       0.129   1.931   0.522  0.00  0.00    +0.000 C 
ENDBRANCH   8  11
ENDBRANCH   4   5
ENDBRANCH   1   3
BRANCH   1  13
ATOM     13  O   UNL     1      -5.013  -1.841  -5.995  0.00  0.00    +0.000 OA
BRANCH  13  14
ATOM     14  C   UNL     1      -5.128  -2.275  -7.329  0.00  0.00    +0.000 C 
BRANCH  14  15
ATOM     15  C   UNL     1      -3.743  -2.519  -7.908  0.00  0.00    +0.000 C 
ATOM     16  C   UNL     1      -2.597  -2.350  -6.928  0.00  0.00    +0.000 C 
ENDBRANCH  14  15
BRANCH  14  17
ATOM     17  C   UNL     1      -5.956  -3.541  -7.353  0.00  0.00    +0.000 C 
BRANCH  17  18
ATOM     18  C   UNL     1      -7.430  -3.301  -7.354  0.00  0.00    +0.000 C 
BRANCH  18  20
ATOM     19  C   UNL     1      -8.450  -2.564  -5.198  0.00  0.00    +0.000 C 
ATOM     20  C   UNL     1      -8.069  -3.739  -6.066  0.00  0.00    +0.000 C 
ENDBRANCH  18  20
ENDBRANCH  17  18
ENDBRANCH  14  17
ENDBRANCH  13  14
ENDBRANCH   1  13
TORSDOF 9
ENDMDL
MODEL 5
REMARK VINA RESULT:      -5.9      3.439      8.502
REMARK  Name = orig_f12_ligand
REMARK  12 active torsions:
REMARK  status: ('A' for Active; 'I' for Inactive)
REMARK    1  A    between atoms: C_1  and  C_2
REMARK    2  A    between atoms: C_2  and  C_3
REMARK    3  A    between atoms: C_3  and  C_4
REMARK    4  A    between atoms: C_4  and  C_5
REMARK    5  A    between atoms: C_5  and  C_6
REMARK    6  A    between atoms: C_5  and  O_8
REMARK    7  A    between atoms: C_6  and  C_7
REMARK    8  A    between atoms: O_8  and  C_9
REMARK    9  A    between atoms: C_9  and  C_11
REMARK   10  A    between atoms: C_12  and  C_13
REMARK   11  A    between atoms: C_16  and  O_17
REMARK   12  A    between atoms: O_17  and  C_18
REMARK                            x       y       z     vdW  Elec       q    Type
REMARK                         _______ _______ _______ _____ _____    ______ ____
ROOT
ATOM      1  C   UNL     1      -3.137   3.905   0.395  0.00  0.00    +0.000 C 
ATOM      2  O   UNL     1      -3.974   4.072   1.256  0.00  0.00    +0.000 OA
ENDROOT
BRANCH   1   3
ATOM      3  C   UNL     1      -2.431   4.990  -0.301  0.00  0.00    +0.000 C 
ATOM      4  C   UNL     1      -2.716   6.260   0.010  0.00  0.00    +0.000 C 
BRANCH   4   5
ATOM      5  C   UNL     1      -2.140   7.401  -0.724  0.00  0.00    +0.000 A 
ATOM      6  C   UNL     1      -2.248   7.522  -2.090  0.00  0.00    +0.000 A 
ATOM      7  C   UNL     1      -1.726   8.627  -2.743  0.00  0.00    +0.000 A 
ATOM      8  C   UNL     1      -1.087   9.605  -2.029  0.00  0.00    +0.000 A 
ATOM      9  C   UNL     1      -0.976   9.493  -0.655  0.00  0.00    +0.000 A 
ATOM     10  C   UNL     1      -1.493   8.378  -0.007  0.00  0.00    +0.000 A 
BRANCH   8  11
ATOM     11  O   UNL     1      -0.569  10.724  -2.616  0.00  0.00    +0.000 OA
ATOM     12  C   UNL     1      -0.965  11.078  -3.935  0.00  0.00    +0.000 C 
ENDBRANCH   8  11
ENDBRANCH   4   5
ENDBRANCH   1   3
BRANCH   1  13
ATOM     13  O   UNL     1      -2.796   2.706  -0.055  0.00  0.00    +0.000 OA
BRANCH  13  14
ATOM     14  C   UNL     1      -1.542   2.536  -0.670  0.00  0.00    +0.000 C 
BRANCH  14  15
ATOM     15  C   UNL     1      -0.558   1.948   0.330  0.00  0.00    +0.000 C 
ATOM     16  C   UNL     1      -0.019   0.575  -0.029  0.00  0.00    +0.000 C 
ENDBRANCH  14  15
BRANCH  14  17
ATOM     17  C   UNL     1      -1.711   1.623  -1.865  0.00  0.00    +0.000 C 
BRANCH  17  18
ATOM     18  C   UNL     1      -3.024   1.772  -2.561  0.00  0.00    +0.000 C 
BRANCH  18  20
ATOM     19  C   UNL     1      -3.964   0.559  -4.529  0.00  0.00    +0.000 C 
ATOM     20  C   UNL     1      -3.532   0.459  -3.085  0.00  0.00    +0.000 C 
ENDBRANCH  18  20
ENDBRANCH  17  18
ENDBRANCH  14  17
ENDBRANCH  13  14
ENDBRANCH   1  13
TORSDOF 9
ENDMDL
MODEL 6
REMARK VINA RESULT:      -5.8      0.932      2.849
REMARK  Name = orig_f12_ligand
REMARK  12 active torsions:
REMARK  status: ('A' for Active; 'I' for Inactive)
REMARK    1  A    between atoms: C_1  and  C_2
REMARK    2  A    between atoms: C_2  and  C_3
REMARK    3  A    between atoms: C_3  and  C_4
REMARK    4  A    between atoms: C_4  and  C_5
REMARK    5  A    between atoms: C_5  and  C_6
REMARK    6  A    between atoms: C_5  and  O_8
REMARK    7  A    between atoms: C_6  and  C_7
REMARK    8  A    between atoms: O_8  and  C_9
REMARK    9  A    between atoms: C_9  and  C_11
REMARK   10  A    between atoms: C_12  and  C_13
REMARK   11  A    between atoms: C_16  and  O_17
REMARK   12  A    between atoms: O_17  and  C_18
REMARK                            x       y       z     vdW  Elec       q    Type
REMARK                         _______ _______ _______ _____ _____    ______ ____
ROOT
ATOM      1  C   UNL     1      -2.860   1.804  -2.211  0.00  0.00    +0.000 C 
ATOM      2  O   UNL     1      -3.916   2.272  -1.842  0.00  0.00    +0.000 OA
ENDROOT
BRANCH   1   3
ATOM      3  C   UNL     1      -2.686   1.001  -3.428  0.00  0.00    +0.000 C 
ATOM      4  C   UNL     1      -3.756   0.711  -4.179  0.00  0.00    +0.000 C 
BRANCH   4   5
ATOM      5  C   UNL     1      -3.682  -0.185  -5.346  0.00  0.00    +0.000 A 
ATOM      6  C   UNL     1      -2.484  -0.540  -5.922  0.00  0.00    +0.000 A 
ATOM      7  C   UNL     1      -2.450  -1.415  -6.996  0.00  0.00    +0.000 A 
ATOM      8  C   UNL     1      -3.616  -1.926  -7.499  0.00  0.00    +0.000 A 
ATOM      9  C   UNL     1      -4.824  -1.578  -6.925  0.00  0.00    +0.000 A 
ATOM     10  C   UNL     1      -4.853  -0.693  -5.854  0.00  0.00    +0.000 A 
BRANCH   8  11
ATOM     11  O   UNL     1      -3.643  -2.804  -8.544  0.00  0.00    +0.000 OA
ATOM     12  C   UNL     1      -4.522  -3.922  -8.506  0.00  0.00    +0.000 C 
ENDBRANCH   8  11
ENDBRANCH   4   5
ENDBRANCH   1   3
BRANCH   1  13
ATOM     13  O   UNL     1      -1.737   1.926  -1.518  0.00  0.00    +0.000 OA
BRANCH  13  14
ATOM     14  C   UNL     1      -1.800   2.364  -0.182  0.00  0.00    +0.000 C 
BRANCH  14  15
ATOM     15  C   UNL     1      -0.542   1.936   0.556  0.00  0.00    +0.000 C 
ATOM     16  C   UNL     1       0.136   0.694   0.006  0.00  0.00    +0.000 C 
ENDBRANCH  14  15
BRANCH  14  17
ATOM     17  C   UNL     1      -1.946   3.871  -0.175  0.00  0.00    +0.000 C 
BRANCH  17  18
ATOM     18  C   UNL     1      -3.080   4.365   0.662  0.00  0.00    +0.000 C 
BRANCH  18  20
ATOM     19  C   UNL     1      -2.671   6.780   0.182  0.00  0.00    +0.000 C 
ATOM     20  C   UNL     1      -2.793   5.718   1.248  0.00  0.00    +0.000 C 
ENDBRANCH  18  20
ENDBRANCH  17  18
ENDBRANCH  14  17
ENDBRANCH  13  14
ENDBRANCH   1  13
TORSDOF 9
ENDMDL
MODEL 7
REMARK VINA RESULT:      -5.7      1.682      8.234
REMARK  Name = orig_f12_ligand
REMARK  12 active torsions:
REMARK  status: ('A' for Active; 'I' for Inactive)
REMARK    1  A    between atoms: C_1  and  C_2
REMARK    2  A    between atoms: C_2  and  C_3
REMARK    3  A    between atoms: C_3  and  C_4
REMARK    4  A    between atoms: C_4  and  C_5
REMARK    5  A    between atoms: C_5  and  C_6
REMARK    6  A    between atoms: C_5  and  O_8
REMARK    7  A    between atoms: C_6  and  C_7
REMARK    8  A    between atoms: O_8  and  C_9
REMARK    9  A    between atoms: C_9  and  C_11
REMARK   10  A    between atoms: C_12  and  C_13
REMARK   11  A    between atoms: C_16  and  O_17
REMARK   12  A    between atoms: O_17  and  C_18
REMARK                            x       y       z     vdW  Elec       q    Type
REMARK                         _______ _______ _______ _____ _____    ______ ____
ROOT
ATOM      1  C   UNL     1      -2.985  -2.190  -7.686  0.00  0.00    +0.000 C 
ATOM      2  O   UNL     1      -1.919  -2.673  -8.001  0.00  0.00    +0.000 OA
ENDROOT
BRANCH   1   3
ATOM      3  C   UNL     1      -3.241  -1.501  -6.414  0.00  0.00    +0.000 C 
ATOM      4  C   UNL     1      -2.498  -0.438  -6.085  0.00  0.00    +0.000 C 
BRANCH   4   5
ATOM      5  C   UNL     1      -2.614   0.233  -4.778  0.00  0.00    +0.000 A 
ATOM      6  C   UNL     1      -3.830   0.613  -4.256  0.00  0.00    +0.000 A 
ATOM      7  C   UNL     1      -3.905   1.209  -3.008  0.00  0.00    +0.000 A 
ATOM      8  C   UNL     1      -2.763   1.434  -2.287  0.00  0.00    +0.000 A 
ATOM      9  C   UNL     1      -1.538   1.053  -2.802  0.00  0.00    +0.000 A 
ATOM     10  C   UNL     1      -1.468   0.464  -4.059  0.00  0.00    +0.000 A 
BRANCH   8  11
ATOM     11  O   UNL     1      -2.778   2.001  -1.045  0.00  0.00    +0.000 OA
ATOM     12  C   UNL     1      -1.617   1.938  -0.225  0.00  0.00    +0.000 C 
ENDBRANCH   8  11
ENDBRANCH   4   5
ENDBRANCH   1   3
BRANCH   1  13
ATOM     13  O   UNL     1      -4.067  -2.276  -8.445  0.00  0.00    +0.000 OA
BRANCH  13  14
ATOM     14  C   UNL     1      -5.288  -2.656  -7.858  0.00  0.00    +0.000 C 
BRANCH  14  15
ATOM     15  C   UNL     1      -6.368  -1.650  -8.228  0.00  0.00    +0.000 C 
ATOM     16  C   UNL     1      -6.758  -0.689  -7.120  0.00  0.00    +0.000 C 
ENDBRANCH  14  15
BRANCH  14  17
ATOM     17  C   UNL     1      -5.648  -4.042  -8.348  0.00  0.00    +0.000 C 
BRANCH  17  18
ATOM     18  C   UNL     1      -7.022  -4.482  -7.963  0.00  0.00    +0.000 C 
BRANCH  18  20
ATOM     19  C   UNL     1      -8.333  -4.255  -5.851  0.00  0.00    +0.000 C 
ATOM     20  C   UNL     1      -7.106  -4.842  -6.507  0.00  0.00    +0.000 C 
ENDBRANCH  18  20
ENDBRANCH  17  18
ENDBRANCH  14  17
ENDBRANCH  13  14
ENDBRANCH   1  13
TORSDOF 9
ENDMDL
MODEL 8
REMARK VINA RESULT:      -5.7      1.298      1.976
REMARK  Name = orig_f12_ligand
REMARK  12 active torsions:
REMARK  status: ('A' for Active; 'I' for Inactive)
REMARK    1  A    between atoms: C_1  and  C_2
REMARK    2  A    between atoms: C_2  and  C_3
REMARK    3  A    between atoms: C_3  and  C_4
REMARK    4  A    between atoms: C_4  and  C_5
REMARK    5  A    between atoms: C_5  and  C_6
REMARK    6  A    between atoms: C_5  and  O_8
REMARK    7  A    between atoms: C_6  and  C_7
REMARK    8  A    between atoms: O_8  and  C_9
REMARK    9  A    between atoms: C_9  and  C_11
REMARK   10  A    between atoms: C_12  and  C_13
REMARK   11  A    between atoms: C_16  and  O_17
REMARK   12  A    between atoms: O_17  and  C_18
REMARK                            x       y       z     vdW  Elec       q    Type
REMARK                         _______ _______ _______ _____ _____    ______ ____
ROOT
ATOM      1  C   UNL     1      -3.665   1.576  -3.341  0.00  0.00    +0.000 C 
ATOM      2  O   UNL     1      -4.299   2.544  -3.704  0.00  0.00    +0.000 OA
ENDROOT
BRANCH   1   3
ATOM      3  C   UNL     1      -3.484   0.355  -4.136  0.00  0.00    +0.000 C 
ATOM      4  C   UNL     1      -4.155   0.216  -5.286  0.00  0.00    +0.000 C 
BRANCH   4   5
ATOM      5  C   UNL     1      -4.118  -1.025  -6.078  0.00  0.00    +0.000 A 
ATOM      6  C   UNL     1      -5.264  -1.643  -6.524  0.00  0.00    +0.000 A 
ATOM      7  C   UNL     1      -5.191  -2.789  -7.298  0.00  0.00    +0.000 A 
ATOM      8  C   UNL     1      -3.971  -3.322  -7.618  0.00  0.00    +0.000 A 
ATOM      9  C   UNL     1      -2.814  -2.707  -7.177  0.00  0.00    +0.000 A 
ATOM     10  C   UNL     1      -2.894  -1.562  -6.393  0.00  0.00    +0.000 A 
BRANCH   8  11
ATOM     11  O   UNL     1      -3.837  -4.439  -8.392  0.00  0.00    +0.000 OA
ATOM     12  C   UNL     1      -3.359  -4.322  -9.726  0.00  0.00    +0.000 C 
ENDBRANCH   8  11
ENDBRANCH   4   5
ENDBRANCH   1   3
BRANCH   1  13
ATOM     13  O   UNL     1      -3.099   1.493  -2.145  0.00  0.00    +0.000 OA
BRANCH  13  14
ATOM     14  C   UNL     1      -2.495   2.638  -1.593  0.00  0.00    +0.000 C 
BRANCH  14  15
ATOM     15  C   UNL     1      -3.395   3.220  -0.514  0.00  0.00    +0.000 C 
ATOM     16  C   UNL     1      -2.700   4.127   0.484  0.00  0.00    +0.000 C 
ENDBRANCH  14  15
BRANCH  14  17
ATOM     17  C   UNL     1      -1.150   2.245  -1.022  0.00  0.00    +0.000 C 
BRANCH  17  18
ATOM     18  C   UNL     1      -0.906   0.772  -1.003  0.00  0.00    +0.000 C 
BRANCH  18  20
ATOM     19  C   UNL     1       1.034   1.486   0.394  0.00  0.00    +0.000 C 
ATOM     20  C   UNL     1       0.059   0.378   0.079  0.00  0.00    +0.000 C 
ENDBRANCH  18  20
ENDBRANCH  17  18
ENDBRANCH  14  17
ENDBRANCH  13  14
ENDBRANCH   1  13
TORSDOF 9
ENDMDL
MODEL 9
REMARK VINA RESULT:      -5.6      2.137      7.691
REMARK  Name = orig_f12_ligand
REMARK  12 active torsions:
REMARK  status: ('A' for Active; 'I' for Inactive)
REMARK    1  A    between atoms: C_1  and  C_2
REMARK    2  A    between atoms: C_2  and  C_3
REMARK    3  A    between atoms: C_3  and  C_4
REMARK    4  A    between atoms: C_4  and  C_5
REMARK    5  A    between atoms: C_5  and  C_6
REMARK    6  A    between atoms: C_5  and  O_8
REMARK    7  A    between atoms: C_6  and  C_7
REMARK    8  A    between atoms: O_8  and  C_9
REMARK    9  A    between atoms: C_9  and  C_11
REMARK   10  A    between atoms: C_12  and  C_13
REMARK   11  A    between atoms: C_16  and  O_17
REMARK   12  A    between atoms: O_17  and  C_18
REMARK                            x       y       z     vdW  Elec       q    Type
REMARK                         _______ _______ _______ _____ _____    ______ ____
ROOT
ATOM      1  C   UNL     1      -4.249  -1.762  -6.967  0.00  0.00    +0.000 C 
ATOM      2  O   UNL     1      -3.430  -1.805  -7.859  0.00  0.00    +0.000 OA
ENDROOT
BRANCH   1   3
ATOM      3  C   UNL     1      -4.089  -0.990  -5.728  0.00  0.00    +0.000 C 
ATOM      4  C   UNL     1      -3.028  -0.186  -5.590  0.00  0.00    +0.000 C 
BRANCH   4   5
ATOM      5  C   UNL     1      -2.734   0.528  -4.335  0.00  0.00    +0.000 A 
ATOM      6  C   UNL     1      -1.505   0.452  -3.720  0.00  0.00    +0.000 A 
ATOM      7  C   UNL     1      -1.252   1.166  -2.560  0.00  0.00    +0.000 A 
ATOM      8  C   UNL     1      -2.233   1.948  -2.011  0.00  0.00    +0.000 A 
ATOM      9  C   UNL     1      -3.469   2.033  -2.623  0.00  0.00    +0.000 A 
ATOM     10  C   UNL     1      -3.720   1.307  -3.781  0.00  0.00    +0.000 A 
BRANCH   8  11
ATOM     11  O   UNL     1      -2.035   2.686  -0.879  0.00  0.00    +0.000 OA
ATOM     12  C   UNL     1      -1.694   2.036   0.339  0.00  0.00    +0.000 C 
ENDBRANCH   8  11
ENDBRANCH   4   5
ENDBRANCH   1   3
BRANCH   1  13
ATOM     13  O   UNL     1      -5.377  -2.457  -6.991  0.00  0.00    +0.000 OA
BRANCH  13  14
ATOM     14  C   UNL     1      -6.592  -1.801  -6.717  0.00  0.00    +0.000 C 
BRANCH  14  15
ATOM     15  C   UNL     1      -7.097  -1.114  -7.977  0.00  0.00    +0.000 C 
ATOM     16  C   UNL     1      -7.654   0.282  -7.769  0.00  0.00    +0.000 C 
ENDBRANCH  14  15
BRANCH  14  17
ATOM     17  C   UNL     1      -7.591  -2.824  -6.221  0.00  0.00    +0.000 C 
BRANCH  17  18
ATOM     18  C   UNL     1      -8.500  -2.313  -5.151  0.00  0.00    +0.000 C 
BRANCH  18  20
ATOM     19  C   UNL     1      -8.650  -0.944  -3.070  0.00  0.00    +0.000 C 
ATOM     20  C   UNL     1      -7.825  -1.286  -4.287  0.00  0.00    +0.000 C 
ENDBRANCH  18  20
ENDBRANCH  17  18
ENDBRANCH  14  17
ENDBRANCH  13  14
ENDBRANCH   1  13
TORSDOF 9
ENDMDL
