REMARK  Name = bgox31_3_ligand
REMARK  5 active torsions:
REMARK  status: ('A' for Active; 'I' for Inactive)
REMARK    1  A    between atoms: C_1  and  O_2
REMARK    2  A    between atoms: O_2  and  C_3
REMARK    3  A    between atoms: C_6  and  C_7
REMARK    4  A    between atoms: C_7  and  C_9
REMARK    5  A    between atoms: C_15  and  O_16
REMARK                            x       y       z     vdW  Elec       q    Type
REMARK                         _______ _______ _______ _____ _____    ______ ____
ROOT
ATOM      1  C   UNL     1      -6.001   0.392   4.955  0.00  0.00    +0.000 A 
ATOM      2  C   UNL     1      -6.166  -0.240   3.751  0.00  0.00    +0.000 A 
ATOM      3  C   UNL     1      -6.457   0.495   2.607  0.00  0.00    +0.000 A 
ATOM      4  C   UNL     1      -6.538   1.861   2.630  0.00  0.00    +0.000 A 
ATOM      5  C   UNL     1      -6.345   2.499   3.869  0.00  0.00    +0.000 A 
ATOM      6  C   UNL     1      -6.099   1.802   5.000  0.00  0.00    +0.000 A 
ENDROOT
BRANCH   1   8
ATOM      7  C   UNL     1      -5.780   0.220   7.365  0.00  0.00    +0.000 C 
ATOM      8  O   UNL     1      -5.704  -0.371   6.099  0.00  0.00    +0.000 OA
ENDBRANCH   1   8
BRANCH   4   9
ATOM      9  C   UNL     1      -6.877   2.662   1.407  0.00  0.00    +0.000 C 
ATOM     10  O   UNL     1      -7.644   3.609   1.502  0.00  0.00    +0.000 OA
BRANCH   9  11
ATOM     11  C   UNL     1      -6.320   2.335   0.047  0.00  0.00    +0.000 A 
ATOM     12  C   UNL     1      -7.142   2.396  -1.048  0.00  0.00    +0.000 A 
ATOM     13  C   UNL     1      -6.622   2.066  -2.274  0.00  0.00    +0.000 A 
ATOM     14  C   UNL     1      -5.294   1.816  -2.398  0.00  0.00    +0.000 A 
ATOM     15  C   UNL     1      -4.412   1.826  -1.294  0.00  0.00    +0.000 A 
ATOM     16  C   UNL     1      -4.986   2.063  -0.057  0.00  0.00    +0.000 A 
ENDBRANCH   9  11
ENDBRANCH   4   9
BRANCH   5  17
ATOM     17  O   UNL     1      -6.513   3.881   3.861  0.00  0.00    +0.000 OA
ATOM     18  H   UNL     1      -6.393   4.399   4.696  0.00  0.00    +0.000 HD
ENDBRANCH   5  17
TORSDOF 4
