MODEL 1
REMARK VINA RESULT:      -5.2      0.000      0.000
REMARK  Name = bgox31_3_ligand
REMARK  5 active torsions:
REMARK  status: ('A' for Active; 'I' for Inactive)
REMARK    1  A    between atoms: C_1  and  O_2
REMARK    2  A    between atoms: O_2  and  C_3
REMARK    3  A    between atoms: C_6  and  C_7
REMARK    4  A    between atoms: C_7  and  C_9
REMARK    5  A    between atoms: C_15  and  O_16
REMARK                            x       y       z     vdW  Elec       q    Type
REMARK                         _______ _______ _______ _____ _____    ______ ____
ROOT
ATOM      1  C   UNL     1      -5.239   2.320  -1.803  0.00  0.00    +0.000 A 
ATOM      2  C   UNL     1      -5.376   0.968  -1.976  0.00  0.00    +0.000 A 
ATOM      3  C   UNL     1      -5.838   0.459  -3.184  0.00  0.00    +0.000 A 
ATOM      4  C   UNL     1      -6.121   1.273  -4.248  0.00  0.00    +0.000 A 
ATOM      5  C   UNL     1      -5.954   2.657  -4.063  0.00  0.00    +0.000 A 
ATOM      6  C   UNL     1      -5.543   3.177  -2.886  0.00  0.00    +0.000 A 
ENDROOT
BRANCH   1   8
ATOM      7  C   UNL     1      -4.751   1.977   0.549  0.00  0.00    +0.000 C 
ATOM      8  O   UNL     1      -4.766   2.813  -0.573  0.00  0.00    +0.000 OA
ENDBRANCH   1   8
BRANCH   4   9
ATOM      9  C   UNL     1      -6.645   0.736  -5.547  0.00  0.00    +0.000 C 
ATOM     10  O   UNL     1      -7.798   0.973  -5.875  0.00  0.00    +0.000 OA
BRANCH   9  11
ATOM     11  C   UNL     1      -5.806  -0.108  -6.470  0.00  0.00    +0.000 A 
ATOM     12  C   UNL     1      -5.053   0.502  -7.440  0.00  0.00    +0.000 A 
ATOM     13  C   UNL     1      -4.319  -0.287  -8.289  0.00  0.00    +0.000 A 
ATOM     14  C   UNL     1      -4.249  -1.625  -8.074  0.00  0.00    +0.000 A 
ATOM     15  C   UNL     1      -4.953  -2.266  -7.031  0.00  0.00    +0.000 A 
ATOM     16  C   UNL     1      -5.764  -1.455  -6.255  0.00  0.00    +0.000 A 
ENDBRANCH   9  11
ENDBRANCH   4   9
BRANCH   5  17
ATOM     17  O   UNL     1      -6.326   3.452  -5.144  0.00  0.00    +0.000 OA
ATOM     18  H   UNL     1      -7.283   3.548  -5.382  0.00  0.00    +0.000 HD
ENDBRANCH   5  17
TORSDOF 4
ENDMDL
MODEL 2
REMARK VINA RESULT:      -5.0      0.906      2.022
REMARK  Name = bgox31_3_ligand
REMARK  5 active torsions:
REMARK  status: ('A' for Active; 'I' for Inactive)
REMARK    1  A    between atoms: C_1  and  O_2
REMARK    2  A    between atoms: O_2  and  C_3
REMARK    3  A    between atoms: C_6  and  C_7
REMARK    4  A    between atoms: C_7  and  C_9
REMARK    5  A    between atoms: C_15  and  O_16
REMARK                            x       y       z     vdW  Elec       q    Type
REMARK                         _______ _______ _______ _____ _____    ______ ____
ROOT
ATOM      1  C   UNL     1      -5.247   2.255  -1.621  0.00  0.00    +0.000 A 
ATOM      2  C   UNL     1      -5.311   3.054  -2.732  0.00  0.00    +0.000 A 
ATOM      3  C   UNL     1      -5.781   2.543  -3.937  0.00  0.00    +0.000 A 
ATOM      4  C   UNL     1      -6.238   1.257  -4.045  0.00  0.00    +0.000 A 
ATOM      5  C   UNL     1      -6.186   0.454  -2.891  0.00  0.00    +0.000 A 
ATOM      6  C   UNL     1      -5.698   0.918  -1.720  0.00  0.00    +0.000 A 
ENDROOT
BRANCH   1   8
ATOM      7  C   UNL     1      -4.609   1.961   0.701  0.00  0.00    +0.000 C 
ATOM      8  O   UNL     1      -4.771   2.794  -0.412  0.00  0.00    +0.000 OA
ENDBRANCH   1   8
BRANCH   4   9
ATOM      9  C   UNL     1      -6.723   0.688  -5.346  0.00  0.00    +0.000 C 
ATOM     10  O   UNL     1      -7.901   0.802  -5.651  0.00  0.00    +0.000 OA
BRANCH   9  11
ATOM     11  C   UNL     1      -5.813  -0.043  -6.297  0.00  0.00    +0.000 A 
ATOM     12  C   UNL     1      -5.713  -1.408  -6.216  0.00  0.00    +0.000 A 
ATOM     13  C   UNL     1      -4.856  -2.052  -7.072  0.00  0.00    +0.000 A 
ATOM     14  C   UNL     1      -4.232  -1.353  -8.054  0.00  0.00    +0.000 A 
ATOM     15  C   UNL     1      -4.384   0.044  -8.207  0.00  0.00    +0.000 A 
ATOM     16  C   UNL     1      -5.175   0.678  -7.265  0.00  0.00    +0.000 A 
ENDBRANCH   9  11
ENDBRANCH   4   9
BRANCH   5  17
ATOM     17  O   UNL     1      -6.588  -0.868  -3.065  0.00  0.00    +0.000 OA
ATOM     18  H   UNL     1      -7.546  -1.081  -3.191  0.00  0.00    +0.000 HD
ENDBRANCH   5  17
TORSDOF 4
ENDMDL
MODEL 3
REMARK VINA RESULT:      -4.8      5.021      7.570
REMARK  Name = bgox31_3_ligand
REMARK  5 active torsions:
REMARK  status: ('A' for Active; 'I' for Inactive)
REMARK    1  A    between atoms: C_1  and  O_2
REMARK    2  A    between atoms: O_2  and  C_3
REMARK    3  A    between atoms: C_6  and  C_7
REMARK    4  A    between atoms: C_7  and  C_9
REMARK    5  A    between atoms: C_15  and  O_16
REMARK                            x       y       z     vdW  Elec       q    Type
REMARK                         _______ _______ _______ _____ _____    ______ ____
ROOT
ATOM      1  C   UNL     1      -6.260  -0.283   4.531  0.00  0.00    +0.000 A 
ATOM      2  C   UNL     1      -4.939  -0.154   4.193  0.00  0.00    +0.000 A 
ATOM      3  C   UNL     1      -4.522   0.896   3.382  0.00  0.00    +0.000 A 
ATOM      4  C   UNL     1      -5.392   1.855   2.940  0.00  0.00    +0.000 A 
ATOM      5  C   UNL     1      -6.743   1.722   3.313  0.00  0.00    +0.000 A 
ATOM      6  C   UNL     1      -7.177   0.690   4.068  0.00  0.00    +0.000 A 
ENDROOT
BRANCH   1   8
ATOM      7  C   UNL     1      -7.382  -2.416   4.807  0.00  0.00    +0.000 C 
ATOM      8  O   UNL     1      -6.660  -1.351   5.355  0.00  0.00    +0.000 OA
ENDBRANCH   1   8
BRANCH   4   9
ATOM      9  C   UNL     1      -4.957   2.977   2.044  0.00  0.00    +0.000 C 
ATOM     10  O   UNL     1      -4.648   4.053   2.534  0.00  0.00    +0.000 OA
BRANCH   9  11
ATOM     11  C   UNL     1      -4.901   2.839   0.546  0.00  0.00    +0.000 A 
ATOM     12  C   UNL     1      -5.236   1.642  -0.032  0.00  0.00    +0.000 A 
ATOM     13  C   UNL     1      -5.150   1.528  -1.396  0.00  0.00    +0.000 A 
ATOM     14  C   UNL     1      -4.867   2.623  -2.147  0.00  0.00    +0.000 A 
ATOM     15  C   UNL     1      -4.597   3.887  -1.577  0.00  0.00    +0.000 A 
ATOM     16  C   UNL     1      -4.592   3.944  -0.194  0.00  0.00    +0.000 A 
ENDBRANCH   9  11
ENDBRANCH   4   9
BRANCH   5  17
ATOM     17  O   UNL     1      -7.605   2.675   2.778  0.00  0.00    +0.000 OA
ATOM     18  H   UNL     1      -7.881   3.454   3.323  0.00  0.00    +0.000 HD
ENDBRANCH   5  17
TORSDOF 4
ENDMDL
MODEL 4
REMARK VINA RESULT:      -4.7      1.446      6.652
REMARK  Name = bgox31_3_ligand
REMARK  5 active torsions:
REMARK  status: ('A' for Active; 'I' for Inactive)
REMARK    1  A    between atoms: C_1  and  O_2
REMARK    2  A    between atoms: O_2  and  C_3
REMARK    3  A    between atoms: C_6  and  C_7
REMARK    4  A    between atoms: C_7  and  C_9
REMARK    5  A    between atoms: C_15  and  O_16
REMARK                            x       y       z     vdW  Elec       q    Type
REMARK                         _______ _______ _______ _____ _____    ______ ____
ROOT
ATOM      1  C   UNL     1      -6.249   0.841  -4.548  0.00  0.00    +0.000 A 
ATOM      2  C   UNL     1      -6.041   0.150  -3.384  0.00  0.00    +0.000 A 
ATOM      3  C   UNL     1      -5.610   0.815  -2.241  0.00  0.00    +0.000 A 
ATOM      4  C   UNL     1      -5.429   2.171  -2.222  0.00  0.00    +0.000 A 
ATOM      5  C   UNL     1      -5.667   2.872  -3.419  0.00  0.00    +0.000 A 
ATOM      6  C   UNL     1      -6.050   2.241  -4.551  0.00  0.00    +0.000 A 
ENDROOT
BRANCH   1   8
ATOM      7  C   UNL     1      -5.822  -0.737  -6.340  0.00  0.00    +0.000 C 
ATOM      8  O   UNL     1      -6.689   0.150  -5.692  0.00  0.00    +0.000 OA
ENDBRANCH   1   8
BRANCH   4   9
ATOM      9  C   UNL     1      -4.939   2.895  -1.002  0.00  0.00    +0.000 C 
ATOM     10  O   UNL     1      -4.160   3.828  -1.129  0.00  0.00    +0.000 OA
BRANCH   9  11
ATOM     11  C   UNL     1      -5.358   2.505   0.391  0.00  0.00    +0.000 A 
ATOM     12  C   UNL     1      -6.664   2.670   0.771  0.00  0.00    +0.000 A 
ATOM     13  C   UNL     1      -7.018   2.336   2.053  0.00  0.00    +0.000 A 
ATOM     14  C   UNL     1      -6.114   1.736   2.868  0.00  0.00    +0.000 A 
ATOM     15  C   UNL     1      -4.782   1.483   2.470  0.00  0.00    +0.000 A 
ATOM     16  C   UNL     1      -4.429   1.924   1.206  0.00  0.00    +0.000 A 
ENDBRANCH   9  11
ENDBRANCH   4   9
BRANCH   5  17
ATOM     17  O   UNL     1      -5.397   4.237  -3.375  0.00  0.00    +0.000 OA
ATOM     18  H   UNL     1      -6.030   4.853  -2.930  0.00  0.00    +0.000 HD
ENDBRANCH   5  17
TORSDOF 4
ENDMDL
MODEL 5
REMARK VINA RESULT:      -4.7      2.789      7.940
REMARK  Name = bgox31_3_ligand
REMARK  5 active torsions:
REMARK  status: ('A' for Active; 'I' for Inactive)
REMARK    1  A    between atoms: C_1  and  O_2
REMARK    2  A    between atoms: O_2  and  C_3
REMARK    3  A    between atoms: C_6  and  C_7
REMARK    4  A    between atoms: C_7  and  C_9
REMARK    5  A    between atoms: C_15  and  O_16
REMARK                            x       y       z     vdW  Elec       q    Type
REMARK                         _______ _______ _______ _____ _____    ______ ____
ROOT
ATOM      1  C   UNL     1      -6.152   2.013  -2.218  0.00  0.00    +0.000 A 
ATOM      2  C   UNL     1      -5.122   1.312  -1.650  0.00  0.00    +0.000 A 
ATOM      3  C   UNL     1      -4.782   1.519  -0.318  0.00  0.00    +0.000 A 
ATOM      4  C   UNL     1      -5.486   2.381   0.479  0.00  0.00    +0.000 A 
ATOM      5  C   UNL     1      -6.556   3.079  -0.111  0.00  0.00    +0.000 A 
ATOM      6  C   UNL     1      -6.879   2.921  -1.413  0.00  0.00    +0.000 A 
ENDROOT
BRANCH   1   8
ATOM      7  C   UNL     1      -6.197   0.545  -4.149  0.00  0.00    +0.000 C 
ATOM      8  O   UNL     1      -6.480   1.786  -3.567  0.00  0.00    +0.000 OA
ENDBRANCH   1   8
BRANCH   4   9
ATOM      9  C   UNL     1      -5.113   2.632   1.911  0.00  0.00    +0.000 C 
ATOM     10  O   UNL     1      -4.544   3.671   2.211  0.00  0.00    +0.000 OA
BRANCH   9  11
ATOM     11  C   UNL     1      -5.396   1.638   3.006  0.00  0.00    +0.000 A 
ATOM     12  C   UNL     1      -6.654   1.573   3.545  0.00  0.00    +0.000 A 
ATOM     13  C   UNL     1      -6.884   0.680   4.561  0.00  0.00    +0.000 A 
ATOM     14  C   UNL     1      -5.913  -0.198   4.920  0.00  0.00    +0.000 A 
ATOM     15  C   UNL     1      -4.633  -0.202   4.321  0.00  0.00    +0.000 A 
ATOM     16  C   UNL     1      -4.401   0.776   3.370  0.00  0.00    +0.000 A 
ENDBRANCH   9  11
ENDBRANCH   4   9
BRANCH   5  17
ATOM     17  O   UNL     1      -7.194   4.001   0.714  0.00  0.00    +0.000 OA
ATOM     18  H   UNL     1      -6.766   4.289   1.559  0.00  0.00    +0.000 HD
ENDBRANCH   5  17
TORSDOF 4
ENDMDL
MODEL 6
REMARK VINA RESULT:      -4.5     14.157     15.573
REMARK  Name = bgox31_3_ligand
REMARK  5 active torsions:
REMARK  status: ('A' for Active; 'I' for Inactive)
REMARK    1  A    between atoms: C_1  and  O_2
REMARK    2  A    between atoms: O_2  and  C_3
REMARK    3  A    between atoms: C_6  and  C_7
REMARK    4  A    between atoms: C_7  and  C_9
REMARK    5  A    between atoms: C_15  and  O_16
REMARK                            x       y       z     vdW  Elec       q    Type
REMARK                         _______ _______ _______ _____ _____    ______ ____
ROOT
ATOM      1  C   UNL     1       0.121  -6.013   9.718  0.00  0.00    +0.000 A 
ATOM      2  C   UNL     1      -0.677  -5.912   8.610  0.00  0.00    +0.000 A 
ATOM      3  C   UNL     1      -0.254  -6.429   7.390  0.00  0.00    +0.000 A 
ATOM      4  C   UNL     1       0.936  -7.094   7.264  0.00  0.00    +0.000 A 
ATOM      5  C   UNL     1       1.737  -7.209   8.416  0.00  0.00    +0.000 A 
ATOM      6  C   UNL     1       1.362  -6.681   9.601  0.00  0.00    +0.000 A 
ENDROOT
BRANCH   1   8
ATOM      7  C   UNL     1      -1.202  -4.392  10.946  0.00  0.00    +0.000 C 
ATOM      8  O   UNL     1      -0.329  -5.485  10.942  0.00  0.00    +0.000 OA
ENDBRANCH   1   8
BRANCH   4   9
ATOM      9  C   UNL     1       1.415  -7.633   5.948  0.00  0.00    +0.000 C 
ATOM     10  O   UNL     1       1.257  -8.817   5.691  0.00  0.00    +0.000 OA
BRANCH   9  11
ATOM     11  C   UNL     1       2.106  -6.771   4.925  0.00  0.00    +0.000 A 
ATOM     12  C   UNL     1       2.427  -5.477   5.243  0.00  0.00    +0.000 A 
ATOM     13  C   UNL     1       3.030  -4.700   4.287  0.00  0.00    +0.000 A 
ATOM     14  C   UNL     1       3.410  -5.255   3.108  0.00  0.00    +0.000 A 
ATOM     15  C   UNL     1       3.160  -6.609   2.790  0.00  0.00    +0.000 A 
ATOM     16  C   UNL     1       2.461  -7.339   3.735  0.00  0.00    +0.000 A 
ENDBRANCH   9  11
ENDBRANCH   4   9
BRANCH   5  17
ATOM     17  O   UNL     1       2.972  -7.823   8.224  0.00  0.00    +0.000 OA
ATOM     18  H   UNL     1       3.295  -8.498   8.873  0.00  0.00    +0.000 HD
ENDBRANCH   5  17
TORSDOF 4
ENDMDL
MODEL 7
REMARK VINA RESULT:      -4.5      4.256      6.174
REMARK  Name = bgox31_3_ligand
REMARK  5 active torsions:
REMARK  status: ('A' for Active; 'I' for Inactive)
REMARK    1  A    between atoms: C_1  and  O_2
REMARK    2  A    between atoms: O_2  and  C_3
REMARK    3  A    between atoms: C_6  and  C_7
REMARK    4  A    between atoms: C_7  and  C_9
REMARK    5  A    between atoms: C_15  and  O_16
REMARK                            x       y       z     vdW  Elec       q    Type
REMARK                         _______ _______ _______ _____ _____    ______ ____
ROOT
ATOM      1  C   UNL     1      -3.834   6.592  -0.386  0.00  0.00    +0.000 A 
ATOM      2  C   UNL     1      -3.889   5.726  -1.446  0.00  0.00    +0.000 A 
ATOM      3  C   UNL     1      -4.165   4.379  -1.237  0.00  0.00    +0.000 A 
ATOM      4  C   UNL     1      -4.437   3.885   0.010  0.00  0.00    +0.000 A 
ATOM      5  C   UNL     1      -4.398   4.789   1.086  0.00  0.00    +0.000 A 
ATOM      6  C   UNL     1      -4.095   6.094   0.911  0.00  0.00    +0.000 A 
ENDROOT
BRANCH   1   8
ATOM      7  C   UNL     1      -2.452   8.309  -1.402  0.00  0.00    +0.000 C 
ATOM      8  O   UNL     1      -3.556   7.952  -0.620  0.00  0.00    +0.000 OA
ENDBRANCH   1   8
BRANCH   4   9
ATOM      9  C   UNL     1      -4.710   2.429   0.249  0.00  0.00    +0.000 C 
ATOM     10  O   UNL     1      -4.176   1.864   1.193  0.00  0.00    +0.000 OA
BRANCH   9  11
ATOM     11  C   UNL     1      -5.611   1.618  -0.644  0.00  0.00    +0.000 A 
ATOM     12  C   UNL     1      -5.062   0.873  -1.654  0.00  0.00    +0.000 A 
ATOM     13  C   UNL     1      -5.903   0.164  -2.475  0.00  0.00    +0.000 A 
ATOM     14  C   UNL     1      -7.230   0.110  -2.196  0.00  0.00    +0.000 A 
ATOM     15  C   UNL     1      -7.807   0.807  -1.110  0.00  0.00    +0.000 A 
ATOM     16  C   UNL     1      -6.947   1.593  -0.363  0.00  0.00    +0.000 A 
ENDBRANCH   9  11
ENDBRANCH   4   9
BRANCH   5  17
ATOM     17  O   UNL     1      -4.604   4.229   2.344  0.00  0.00    +0.000 OA
ATOM     18  H   UNL     1      -5.456   3.766   2.546  0.00  0.00    +0.000 HD
ENDBRANCH   5  17
TORSDOF 4
ENDMDL
MODEL 8
REMARK VINA RESULT:      -4.5      4.014      8.127
REMARK  Name = bgox31_3_ligand
REMARK  5 active torsions:
REMARK  status: ('A' for Active; 'I' for Inactive)
REMARK    1  A    between atoms: C_1  and  O_2
REMARK    2  A    between atoms: O_2  and  C_3
REMARK    3  A    between atoms: C_6  and  C_7
REMARK    4  A    between atoms: C_7  and  C_9
REMARK    5  A    between atoms: C_15  and  O_16
REMARK                            x       y       z     vdW  Elec       q    Type
REMARK                         _______ _______ _______ _____ _____    ______ ____
ROOT
ATOM      1  C   UNL     1      -4.935   1.996  -1.252  0.00  0.00    +0.000 A 
ATOM      2  C   UNL     1      -5.024   2.315   0.077  0.00  0.00    +0.000 A 
ATOM      3  C   UNL     1      -4.804   3.622   0.501  0.00  0.00    +0.000 A 
ATOM      4  C   UNL     1      -4.544   4.632  -0.385  0.00  0.00    +0.000 A 
ATOM      5  C   UNL     1      -4.477   4.294  -1.749  0.00  0.00    +0.000 A 
ATOM      6  C   UNL     1      -4.650   3.024  -2.179  0.00  0.00    +0.000 A 
ENDROOT
BRANCH   1   8
ATOM      7  C   UNL     1      -5.909   0.417  -2.815  0.00  0.00    +0.000 C 
ATOM      8  O   UNL     1      -5.164   0.669  -1.658  0.00  0.00    +0.000 OA
ENDBRANCH   1   8
BRANCH   4   9
ATOM      9  C   UNL     1      -4.280   6.039   0.063  0.00  0.00    +0.000 C 
ATOM     10  O   UNL     1      -5.149   6.888  -0.075  0.00  0.00    +0.000 OA
BRANCH   9  11
ATOM     11  C   UNL     1      -2.967   6.462   0.667  0.00  0.00    +0.000 A 
ATOM     12  C   UNL     1      -2.790   6.367   2.022  0.00  0.00    +0.000 A 
ATOM     13  C   UNL     1      -1.596   6.784   2.555  0.00  0.00    +0.000 A 
ATOM     14  C   UNL     1      -0.583   7.155   1.733  0.00  0.00    +0.000 A 
ATOM     15  C   UNL     1      -0.718   7.185   0.326  0.00  0.00    +0.000 A 
ATOM     16  C   UNL     1      -1.965   6.854  -0.174  0.00  0.00    +0.000 A 
ENDBRANCH   9  11
ENDBRANCH   4   9
BRANCH   5  17
ATOM     17  O   UNL     1      -4.135   5.336  -2.606  0.00  0.00    +0.000 OA
ATOM     18  H   UNL     1      -4.607   6.204  -2.544  0.00  0.00    +0.000 HD
ENDBRANCH   5  17
TORSDOF 4
ENDMDL
MODEL 9
REMARK VINA RESULT:      -4.5      2.991      5.009
REMARK  Name = bgox31_3_ligand
REMARK  5 active torsions:
REMARK  status: ('A' for Active; 'I' for Inactive)
REMARK    1  A    between atoms: C_1  and  O_2
REMARK    2  A    between atoms: O_2  and  C_3
REMARK    3  A    between atoms: C_6  and  C_7
REMARK    4  A    between atoms: C_7  and  C_9
REMARK    5  A    between atoms: C_15  and  O_16
REMARK                            x       y       z     vdW  Elec       q    Type
REMARK                         _______ _______ _______ _____ _____    ______ ____
ROOT
ATOM      1  C   UNL     1      -6.029   1.837   3.012  0.00  0.00    +0.000 A 
ATOM      2  C   UNL     1      -4.786   1.538   2.519  0.00  0.00    +0.000 A 
ATOM      3  C   UNL     1      -4.459   1.850   1.204  0.00  0.00    +0.000 A 
ATOM      4  C   UNL     1      -5.334   2.506   0.381  0.00  0.00    +0.000 A 
ATOM      5  C   UNL     1      -6.599   2.827   0.906  0.00  0.00    +0.000 A 
ATOM      6  C   UNL     1      -6.952   2.499   2.169  0.00  0.00    +0.000 A 
ENDROOT
BRANCH   1   8
ATOM      7  C   UNL     1      -6.513   0.176   4.712  0.00  0.00    +0.000 C 
ATOM      8  O   UNL     1      -6.338   1.515   4.346  0.00  0.00    +0.000 OA
ENDBRANCH   1   8
BRANCH   4   9
ATOM      9  C   UNL     1      -5.001   2.825  -1.047  0.00  0.00    +0.000 C 
ATOM     10  O   UNL     1      -4.310   3.802  -1.300  0.00  0.00    +0.000 OA
BRANCH   9  11
ATOM     11  C   UNL     1      -5.500   1.994  -2.199  0.00  0.00    +0.000 A 
ATOM     12  C   UNL     1      -5.713   2.589  -3.415  0.00  0.00    +0.000 A 
ATOM     13  C   UNL     1      -6.196   1.820  -4.443  0.00  0.00    +0.000 A 
ATOM     14  C   UNL     1      -6.328   0.480  -4.278  0.00  0.00    +0.000 A 
ATOM     15  C   UNL     1      -6.039  -0.168  -3.056  0.00  0.00    +0.000 A 
ATOM     16  C   UNL     1      -5.650   0.650  -2.009  0.00  0.00    +0.000 A 
ENDBRANCH   9  11
ENDBRANCH   4   9
BRANCH   5  17
ATOM     17  O   UNL     1      -7.483   3.422   0.011  0.00  0.00    +0.000 OA
ATOM     18  H   UNL     1      -7.466   3.167  -0.945  0.00  0.00    +0.000 HD
ENDBRANCH   5  17
TORSDOF 4
ENDMDL
