REMARK  Name = bg33_4_ligand
REMARK  12 active torsions:
REMARK  status: ('A' for Active; 'I' for Inactive)
REMARK    1  A    between atoms: C_1  and  C_2
REMARK    2  A    between atoms: C_2  and  C_3
REMARK    3  A    between atoms: C_3  and  C_4
REMARK    4  A    between atoms: C_4  and  C_5
REMARK    5  A    between atoms: C_5  and  C_6
REMARK    6  A    between atoms: C_5  and  O_8
REMARK    7  A    between atoms: C_6  and  C_7
REMARK    8  A    between atoms: O_8  and  C_9
REMARK    9  A    between atoms: C_9  and  C_11
REMARK   10  A    between atoms: C_12  and  C_13
REMARK   11  A    between atoms: C_16  and  O_17
REMARK   12  A    between atoms: O_17  and  C_18
REMARK                            x       y       z     vdW  Elec       q    Type
REMARK                         _______ _______ _______ _____ _____    ______ ____
ROOT
ATOM      1  C   UNL     1      -6.029   0.346  -4.863  0.00  0.00    +0.000 C 
ATOM      2  O   UNL     1      -6.977  -0.031  -5.617  0.00  0.00    +0.000 OA
ENDROOT
BRANCH   1   3
ATOM      3  C   UNL     1      -5.539  -0.446  -3.724  0.00  0.00    +0.000 C 
ATOM      4  C   UNL     1      -4.597   0.167  -2.832  0.00  0.00    +0.000 C 
BRANCH   4   5
ATOM      5  C   UNL     1      -3.968  -0.626  -1.698  0.00  0.00    +0.000 A 
ATOM      6  C   UNL     1      -4.624  -1.654  -1.056  0.00  0.00    +0.000 A 
ATOM      7  C   UNL     1      -4.001  -2.388   0.011  0.00  0.00    +0.000 A 
ATOM      8  C   UNL     1      -2.690  -2.110   0.438  0.00  0.00    +0.000 A 
ATOM      9  C   UNL     1      -2.044  -1.078  -0.239  0.00  0.00    +0.000 A 
ATOM     10  C   UNL     1      -2.654  -0.369  -1.282  0.00  0.00    +0.000 A 
BRANCH   8  11
ATOM     11  O   UNL     1      -2.019  -2.817   1.416  0.00  0.00    +0.000 OA
ATOM     12  C   UNL     1      -2.677  -3.959   2.021  0.00  0.00    +0.000 C 
ENDBRANCH   8  11
ENDBRANCH   4   5
ENDBRANCH   1   3
BRANCH   1  13
ATOM     13  O   UNL     1      -5.262   1.552  -5.187  0.00  0.00    +0.000 OA
BRANCH  13  14
ATOM     14  C   UNL     1      -5.778   2.465  -6.095  0.00  0.00    +0.000 C 
BRANCH  14  15
ATOM     15  C   UNL     1      -5.110   1.988  -7.417  0.00  0.00    +0.000 C 
ATOM     16  C   UNL     1      -5.819   2.591  -8.673  0.00  0.00    +0.000 C 
ENDBRANCH  14  15
BRANCH  14  17
ATOM     17  C   UNL     1      -5.376   3.942  -5.634  0.00  0.00    +0.000 C 
BRANCH  17  18
ATOM     18  C   UNL     1      -5.233   4.002  -4.135  0.00  0.00    +0.000 C 
BRANCH  18  20
ATOM     19  C   UNL     1      -4.899   5.542  -2.148  0.00  0.00    +0.000 C 
ATOM     20  C   UNL     1      -5.245   5.436  -3.608  0.00  0.00    +0.000 C 
ENDBRANCH  18  20
ENDBRANCH  17  18
ENDBRANCH  14  17
ENDBRANCH  13  14
ENDBRANCH   1  13
TORSDOF 9
