MODEL 1
REMARK VINA RESULT:      -4.5      0.000      0.000
REMARK  Name = bg33_4_ligand
REMARK  12 active torsions:
REMARK  status: ('A' for Active; 'I' for Inactive)
REMARK    1  A    between atoms: C_1  and  C_2
REMARK    2  A    between atoms: C_2  and  C_3
REMARK    3  A    between atoms: C_3  and  C_4
REMARK    4  A    between atoms: C_4  and  C_5
REMARK    5  A    between atoms: C_5  and  C_6
REMARK    6  A    between atoms: C_5  and  O_8
REMARK    7  A    between atoms: C_6  and  C_7
REMARK    8  A    between atoms: O_8  and  C_9
REMARK    9  A    between atoms: C_9  and  C_11
REMARK   10  A    between atoms: C_12  and  C_13
REMARK   11  A    between atoms: C_16  and  O_17
REMARK   12  A    between atoms: O_17  and  C_18
REMARK                            x       y       z     vdW  Elec       q    Type
REMARK                         _______ _______ _______ _____ _____    ______ ____
ROOT
ATOM      1  C   UNL     1      -4.346  -4.516   4.659  0.00  0.00    +0.000 C 
ATOM      2  O   UNL     1      -5.263  -4.233   5.488  0.00  0.00    +0.000 OA
ENDROOT
BRANCH   1   3
ATOM      3  C   UNL     1      -4.293  -3.966   3.295  0.00  0.00    +0.000 C 
ATOM      4  C   UNL     1      -3.034  -3.992   2.607  0.00  0.00    +0.000 C 
BRANCH   4   5
ATOM      5  C   UNL     1      -2.880  -3.346   1.240  0.00  0.00    +0.000 A 
ATOM      6  C   UNL     1      -1.775  -2.601   0.889  0.00  0.00    +0.000 A 
ATOM      7  C   UNL     1      -1.657  -2.005  -0.414  0.00  0.00    +0.000 A 
ATOM      8  C   UNL     1      -2.648  -2.168  -1.398  0.00  0.00    +0.000 A 
ATOM      9  C   UNL     1      -3.746  -2.940  -1.023  0.00  0.00    +0.000 A 
ATOM     10  C   UNL     1      -3.854  -3.522   0.246  0.00  0.00    +0.000 A 
BRANCH   8  11
ATOM     11  O   UNL     1      -2.565  -1.670  -2.683  0.00  0.00    +0.000 OA
ATOM     12  C   UNL     1      -1.964  -0.365  -2.883  0.00  0.00    +0.000 C 
ENDBRANCH   8  11
ENDBRANCH   4   5
ENDBRANCH   1   3
BRANCH   1  13
ATOM     13  O   UNL     1      -3.189  -5.311   5.079  0.00  0.00    +0.000 OA
BRANCH  13  14
ATOM     14  C   UNL     1      -3.384  -6.599   5.557  0.00  0.00    +0.000 C 
BRANCH  14  15
ATOM     15  C   UNL     1      -1.919  -7.041   5.841  0.00  0.00    +0.000 C 
ATOM     16  C   UNL     1      -0.937  -5.825   5.834  0.00  0.00    +0.000 C 
ENDBRANCH  14  15
BRANCH  14  17
ATOM     17  C   UNL     1      -4.140  -7.459   4.442  0.00  0.00    +0.000 C 
BRANCH  17  18
ATOM     18  C   UNL     1      -3.184  -7.853   3.345  0.00  0.00    +0.000 C 
BRANCH  18  20
ATOM     19  C   UNL     1      -2.804  -7.167   0.933  0.00  0.00    +0.000 C 
ATOM     20  C   UNL     1      -3.788  -7.669   1.954  0.00  0.00    +0.000 C 
ENDBRANCH  18  20
ENDBRANCH  17  18
ENDBRANCH  14  17
ENDBRANCH  13  14
ENDBRANCH   1  13
TORSDOF 9
ENDMDL
MODEL 2
REMARK VINA RESULT:      -4.4      2.025      7.952
REMARK  Name = bg33_4_ligand
REMARK  12 active torsions:
REMARK  status: ('A' for Active; 'I' for Inactive)
REMARK    1  A    between atoms: C_1  and  C_2
REMARK    2  A    between atoms: C_2  and  C_3
REMARK    3  A    between atoms: C_3  and  C_4
REMARK    4  A    between atoms: C_4  and  C_5
REMARK    5  A    between atoms: C_5  and  C_6
REMARK    6  A    between atoms: C_5  and  O_8
REMARK    7  A    between atoms: C_6  and  C_7
REMARK    8  A    between atoms: O_8  and  C_9
REMARK    9  A    between atoms: C_9  and  C_11
REMARK   10  A    between atoms: C_12  and  C_13
REMARK   11  A    between atoms: C_16  and  O_17
REMARK   12  A    between atoms: O_17  and  C_18
REMARK                            x       y       z     vdW  Elec       q    Type
REMARK                         _______ _______ _______ _____ _____    ______ ____
ROOT
ATOM      1  C   UNL     1      -1.626  -0.953  -1.357  0.00  0.00    +0.000 C 
ATOM      2  O   UNL     1      -1.448   0.207  -0.875  0.00  0.00    +0.000 OA
ENDROOT
BRANCH   1   3
ATOM      3  C   UNL     1      -1.734  -2.164  -0.528  0.00  0.00    +0.000 C 
ATOM      4  C   UNL     1      -3.012  -2.480   0.042  0.00  0.00    +0.000 C 
BRANCH   4   5
ATOM      5  C   UNL     1      -3.173  -3.654   0.994  0.00  0.00    +0.000 A 
ATOM      6  C   UNL     1      -3.151  -4.964   0.568  0.00  0.00    +0.000 A 
ATOM      7  C   UNL     1      -3.302  -6.054   1.493  0.00  0.00    +0.000 A 
ATOM      8  C   UNL     1      -3.458  -5.840   2.875  0.00  0.00    +0.000 A 
ATOM      9  C   UNL     1      -3.459  -4.507   3.280  0.00  0.00    +0.000 A 
ATOM     10  C   UNL     1      -3.307  -3.449   2.374  0.00  0.00    +0.000 A 
BRANCH   8  11
ATOM     11  O   UNL     1      -3.549  -6.845   3.817  0.00  0.00    +0.000 OA
ATOM     12  C   UNL     1      -3.349  -8.216   3.390  0.00  0.00    +0.000 C 
ENDBRANCH   8  11
ENDBRANCH   4   5
ENDBRANCH   1   3
BRANCH   1  13
ATOM     13  O   UNL     1      -1.883  -1.127  -2.789  0.00  0.00    +0.000 OA
BRANCH  13  14
ATOM     14  C   UNL     1      -3.176  -0.987  -3.271  0.00  0.00    +0.000 C 
BRANCH  14  15
ATOM     15  C   UNL     1      -3.187  -2.040  -4.417  0.00  0.00    +0.000 C 
ATOM     16  C   UNL     1      -4.167  -3.219  -4.109  0.00  0.00    +0.000 C 
ENDBRANCH  14  15
BRANCH  14  17
ATOM     17  C   UNL     1      -3.394   0.524  -3.746  0.00  0.00    +0.000 C 
BRANCH  17  18
ATOM     18  C   UNL     1      -4.308   1.246  -2.789  0.00  0.00    +0.000 C 
BRANCH  18  20
ATOM     19  C   UNL     1      -4.949   0.657  -0.407  0.00  0.00    +0.000 C 
ATOM     20  C   UNL     1      -5.052   0.287  -1.862  0.00  0.00    +0.000 C 
ENDBRANCH  18  20
ENDBRANCH  17  18
ENDBRANCH  14  17
ENDBRANCH  13  14
ENDBRANCH   1  13
TORSDOF 9
ENDMDL
MODEL 3
REMARK VINA RESULT:      -4.3      2.343      8.077
REMARK  Name = bg33_4_ligand
REMARK  12 active torsions:
REMARK  status: ('A' for Active; 'I' for Inactive)
REMARK    1  A    between atoms: C_1  and  C_2
REMARK    2  A    between atoms: C_2  and  C_3
REMARK    3  A    between atoms: C_3  and  C_4
REMARK    4  A    between atoms: C_4  and  C_5
REMARK    5  A    between atoms: C_5  and  C_6
REMARK    6  A    between atoms: C_5  and  O_8
REMARK    7  A    between atoms: C_6  and  C_7
REMARK    8  A    between atoms: O_8  and  C_9
REMARK    9  A    between atoms: C_9  and  C_11
REMARK   10  A    between atoms: C_12  and  C_13
REMARK   11  A    between atoms: C_16  and  O_17
REMARK   12  A    between atoms: O_17  and  C_18
REMARK                            x       y       z     vdW  Elec       q    Type
REMARK                         _______ _______ _______ _____ _____    ______ ____
ROOT
ATOM      1  C   UNL     1      -1.925  -0.839  -1.487  0.00  0.00    +0.000 C 
ATOM      2  O   UNL     1      -1.675  -1.058  -2.711  0.00  0.00    +0.000 OA
ENDROOT
BRANCH   1   3
ATOM      3  C   UNL     1      -1.910  -1.891  -0.458  0.00  0.00    +0.000 C 
ATOM      4  C   UNL     1      -3.104  -2.661  -0.265  0.00  0.00    +0.000 C 
BRANCH   4   5
ATOM      5  C   UNL     1      -3.195  -3.690   0.851  0.00  0.00    +0.000 A 
ATOM      6  C   UNL     1      -3.257  -3.341   2.182  0.00  0.00    +0.000 A 
ATOM      7  C   UNL     1      -3.346  -4.337   3.214  0.00  0.00    +0.000 A 
ATOM      8  C   UNL     1      -3.396  -5.711   2.918  0.00  0.00    +0.000 A 
ATOM      9  C   UNL     1      -3.350  -6.036   1.564  0.00  0.00    +0.000 A 
ATOM     10  C   UNL     1      -3.268  -5.060   0.562  0.00  0.00    +0.000 A 
BRANCH   8  11
ATOM     11  O   UNL     1      -3.540  -6.710   3.860  0.00  0.00    +0.000 OA
ATOM     12  C   UNL     1      -2.540  -6.828   4.904  0.00  0.00    +0.000 C 
ENDBRANCH   8  11
ENDBRANCH   4   5
ENDBRANCH   1   3
BRANCH   1  13
ATOM     13  O   UNL     1      -2.103   0.533  -1.003  0.00  0.00    +0.000 OA
BRANCH  13  14
ATOM     14  C   UNL     1      -3.118   1.316  -1.532  0.00  0.00    +0.000 C 
BRANCH  14  15
ATOM     15  C   UNL     1      -3.015   2.588  -0.641  0.00  0.00    +0.000 C 
ATOM     16  C   UNL     1      -4.197   3.576  -0.906  0.00  0.00    +0.000 C 
ENDBRANCH  14  15
BRANCH  14  17
ATOM     17  C   UNL     1      -4.502   0.524  -1.415  0.00  0.00    +0.000 C 
BRANCH  17  18
ATOM     18  C   UNL     1      -5.111   0.328  -2.779  0.00  0.00    +0.000 C 
BRANCH  18  20
ATOM     19  C   UNL     1      -4.046   0.192  -5.077  0.00  0.00    +0.000 C 
ATOM     20  C   UNL     1      -4.325   1.050  -3.874  0.00  0.00    +0.000 C 
ENDBRANCH  18  20
ENDBRANCH  17  18
ENDBRANCH  14  17
ENDBRANCH  13  14
ENDBRANCH   1  13
TORSDOF 9
ENDMDL
MODEL 4
REMARK VINA RESULT:      -4.3      1.544      3.090
REMARK  Name = bg33_4_ligand
REMARK  12 active torsions:
REMARK  status: ('A' for Active; 'I' for Inactive)
REMARK    1  A    between atoms: C_1  and  C_2
REMARK    2  A    between atoms: C_2  and  C_3
REMARK    3  A    between atoms: C_3  and  C_4
REMARK    4  A    between atoms: C_4  and  C_5
REMARK    5  A    between atoms: C_5  and  C_6
REMARK    6  A    between atoms: C_5  and  O_8
REMARK    7  A    between atoms: C_6  and  C_7
REMARK    8  A    between atoms: O_8  and  C_9
REMARK    9  A    between atoms: C_9  and  C_11
REMARK   10  A    between atoms: C_12  and  C_13
REMARK   11  A    between atoms: C_16  and  O_17
REMARK   12  A    between atoms: O_17  and  C_18
REMARK                            x       y       z     vdW  Elec       q    Type
REMARK                         _______ _______ _______ _____ _____    ______ ____
ROOT
ATOM      1  C   UNL     1      -3.672  -6.780   1.901  0.00  0.00    +0.000 C 
ATOM      2  O   UNL     1      -3.813  -8.016   1.651  0.00  0.00    +0.000 OA
ENDROOT
BRANCH   1   3
ATOM      3  C   UNL     1      -3.177  -5.807   0.915  0.00  0.00    +0.000 C 
ATOM      4  C   UNL     1      -3.293  -4.412   1.227  0.00  0.00    +0.000 C 
BRANCH   4   5
ATOM      5  C   UNL     1      -2.901  -3.351   0.211  0.00  0.00    +0.000 A 
ATOM      6  C   UNL     1      -1.783  -2.559   0.356  0.00  0.00    +0.000 A 
ATOM      7  C   UNL     1      -1.437  -1.567  -0.624  0.00  0.00    +0.000 A 
ATOM      8  C   UNL     1      -2.206  -1.368  -1.785  0.00  0.00    +0.000 A 
ATOM      9  C   UNL     1      -3.321  -2.193  -1.914  0.00  0.00    +0.000 A 
ATOM     10  C   UNL     1      -3.651  -3.163  -0.959  0.00  0.00    +0.000 A 
BRANCH   8  11
ATOM     11  O   UNL     1      -1.893  -0.472  -2.788  0.00  0.00    +0.000 OA
ATOM     12  C   UNL     1      -2.951   0.354  -3.335  0.00  0.00    +0.000 C 
ENDBRANCH   8  11
ENDBRANCH   4   5
ENDBRANCH   1   3
BRANCH   1  13
ATOM     13  O   UNL     1      -4.144  -6.225   3.173  0.00  0.00    +0.000 OA
BRANCH  13  14
ATOM     14  C   UNL     1      -3.408  -6.444   4.328  0.00  0.00    +0.000 C 
BRANCH  14  15
ATOM     15  C   UNL     1      -4.499  -7.015   5.279  0.00  0.00    +0.000 C 
ATOM     16  C   UNL     1      -4.421  -8.574   5.377  0.00  0.00    +0.000 C 
ENDBRANCH  14  15
BRANCH  14  17
ATOM     17  C   UNL     1      -2.760  -5.061   4.802  0.00  0.00    +0.000 C 
BRANCH  17  18
ATOM     18  C   UNL     1      -2.044  -5.242   6.116  0.00  0.00    +0.000 C 
BRANCH  18  20
ATOM     19  C   UNL     1      -1.074  -7.375   7.085  0.00  0.00    +0.000 C 
ATOM     20  C   UNL     1      -0.947  -6.303   6.037  0.00  0.00    +0.000 C 
ENDBRANCH  18  20
ENDBRANCH  17  18
ENDBRANCH  14  17
ENDBRANCH  13  14
ENDBRANCH   1  13
TORSDOF 9
ENDMDL
MODEL 5
REMARK VINA RESULT:      -4.3      2.475      7.816
REMARK  Name = bg33_4_ligand
REMARK  12 active torsions:
REMARK  status: ('A' for Active; 'I' for Inactive)
REMARK    1  A    between atoms: C_1  and  C_2
REMARK    2  A    between atoms: C_2  and  C_3
REMARK    3  A    between atoms: C_3  and  C_4
REMARK    4  A    between atoms: C_4  and  C_5
REMARK    5  A    between atoms: C_5  and  C_6
REMARK    6  A    between atoms: C_5  and  O_8
REMARK    7  A    between atoms: C_6  and  C_7
REMARK    8  A    between atoms: O_8  and  C_9
REMARK    9  A    between atoms: C_9  and  C_11
REMARK   10  A    between atoms: C_12  and  C_13
REMARK   11  A    between atoms: C_16  and  O_17
REMARK   12  A    between atoms: O_17  and  C_18
REMARK                            x       y       z     vdW  Elec       q    Type
REMARK                         _______ _______ _______ _____ _____    ______ ____
ROOT
ATOM      1  C   UNL     1      -2.597  -1.903  -1.160  0.00  0.00    +0.000 C 
ATOM      2  O   UNL     1      -1.657  -1.396  -1.844  0.00  0.00    +0.000 OA
ENDROOT
BRANCH   1   3
ATOM      3  C   UNL     1      -2.384  -2.937  -0.135  0.00  0.00    +0.000 C 
ATOM      4  C   UNL     1      -3.427  -3.899   0.079  0.00  0.00    +0.000 C 
BRANCH   4   5
ATOM      5  C   UNL     1      -3.321  -4.928   1.192  0.00  0.00    +0.000 A 
ATOM      6  C   UNL     1      -3.021  -6.252   0.955  0.00  0.00    +0.000 A 
ATOM      7  C   UNL     1      -2.924  -7.201   2.030  0.00  0.00    +0.000 A 
ATOM      8  C   UNL     1      -3.109  -6.825   3.373  0.00  0.00    +0.000 A 
ATOM      9  C   UNL     1      -3.394  -5.478   3.585  0.00  0.00    +0.000 A 
ATOM     10  C   UNL     1      -3.482  -4.556   2.534  0.00  0.00    +0.000 A 
BRANCH   8  11
ATOM     11  O   UNL     1      -2.972  -7.678   4.450  0.00  0.00    +0.000 OA
ATOM     12  C   UNL     1      -2.261  -7.205   5.622  0.00  0.00    +0.000 C 
ENDBRANCH   8  11
ENDBRANCH   4   5
ENDBRANCH   1   3
BRANCH   1  13
ATOM     13  O   UNL     1      -3.957  -1.364  -1.259  0.00  0.00    +0.000 OA
BRANCH  13  14
ATOM     14  C   UNL     1      -4.313  -0.265  -0.491  0.00  0.00    +0.000 C 
BRANCH  14  15
ATOM     15  C   UNL     1      -5.707  -0.707   0.042  0.00  0.00    +0.000 C 
ATOM     16  C   UNL     1      -5.616  -1.276   1.495  0.00  0.00    +0.000 C 
ENDBRANCH  14  15
BRANCH  14  17
ATOM     17  C   UNL     1      -4.330   1.036  -1.419  0.00  0.00    +0.000 C 
BRANCH  17  18
ATOM     18  C   UNL     1      -3.159   1.927  -1.094  0.00  0.00    +0.000 C 
BRANCH  18  20
ATOM     19  C   UNL     1      -4.424   3.228   0.678  0.00  0.00    +0.000 C 
ATOM     20  C   UNL     1      -3.598   3.296  -0.577  0.00  0.00    +0.000 C 
ENDBRANCH  18  20
ENDBRANCH  17  18
ENDBRANCH  14  17
ENDBRANCH  13  14
ENDBRANCH   1  13
TORSDOF 9
ENDMDL
MODEL 6
REMARK VINA RESULT:      -4.3      2.353      8.481
REMARK  Name = bg33_4_ligand
REMARK  12 active torsions:
REMARK  status: ('A' for Active; 'I' for Inactive)
REMARK    1  A    between atoms: C_1  and  C_2
REMARK    2  A    between atoms: C_2  and  C_3
REMARK    3  A    between atoms: C_3  and  C_4
REMARK    4  A    between atoms: C_4  and  C_5
REMARK    5  A    between atoms: C_5  and  C_6
REMARK    6  A    between atoms: C_5  and  O_8
REMARK    7  A    between atoms: C_6  and  C_7
REMARK    8  A    between atoms: O_8  and  C_9
REMARK    9  A    between atoms: C_9  and  C_11
REMARK   10  A    between atoms: C_12  and  C_13
REMARK   11  A    between atoms: C_16  and  O_17
REMARK   12  A    between atoms: O_17  and  C_18
REMARK                            x       y       z     vdW  Elec       q    Type
REMARK                         _______ _______ _______ _____ _____    ______ ____
ROOT
ATOM      1  C   UNL     1      -1.645  -0.851  -1.365  0.00  0.00    +0.000 C 
ATOM      2  O   UNL     1      -1.586   0.336  -0.918  0.00  0.00    +0.000 OA
ENDROOT
BRANCH   1   3
ATOM      3  C   UNL     1      -1.735  -2.036  -0.498  0.00  0.00    +0.000 C 
ATOM      4  C   UNL     1      -3.018  -2.381   0.042  0.00  0.00    +0.000 C 
BRANCH   4   5
ATOM      5  C   UNL     1      -3.166  -3.528   1.029  0.00  0.00    +0.000 A 
ATOM      6  C   UNL     1      -3.279  -3.329   2.388  0.00  0.00    +0.000 A 
ATOM      7  C   UNL     1      -3.421  -4.434   3.296  0.00  0.00    +0.000 A 
ATOM      8  C   UNL     1      -3.472  -5.765   2.845  0.00  0.00    +0.000 A 
ATOM      9  C   UNL     1      -3.373  -5.936   1.466  0.00  0.00    +0.000 A 
ATOM     10  C   UNL     1      -3.240  -4.856   0.585  0.00  0.00    +0.000 A 
BRANCH   8  11
ATOM     11  O   UNL     1      -3.665  -6.862   3.662  0.00  0.00    +0.000 OA
ATOM     12  C   UNL     1      -2.684  -7.138   4.695  0.00  0.00    +0.000 C 
ENDBRANCH   8  11
ENDBRANCH   4   5
ENDBRANCH   1   3
BRANCH   1  13
ATOM     13  O   UNL     1      -1.776  -1.093  -2.804  0.00  0.00    +0.000 OA
BRANCH  13  14
ATOM     14  C   UNL     1      -3.022  -0.984  -3.404  0.00  0.00    +0.000 C 
BRANCH  14  15
ATOM     15  C   UNL     1      -2.867  -1.961  -4.604  0.00  0.00    +0.000 C 
ATOM     16  C   UNL     1      -3.907  -3.127  -4.538  0.00  0.00    +0.000 C 
ENDBRANCH  14  15
BRANCH  14  17
ATOM     17  C   UNL     1      -3.273   0.543  -3.808  0.00  0.00    +0.000 C 
BRANCH  17  18
ATOM     18  C   UNL     1      -4.427   0.646  -4.771  0.00  0.00    +0.000 C 
BRANCH  18  20
ATOM     19  C   UNL     1      -5.006   2.348  -6.560  0.00  0.00    +0.000 C 
ATOM     20  C   UNL     1      -4.026   1.309  -6.088  0.00  0.00    +0.000 C 
ENDBRANCH  18  20
ENDBRANCH  17  18
ENDBRANCH  14  17
ENDBRANCH  13  14
ENDBRANCH   1  13
TORSDOF 9
ENDMDL
MODEL 7
REMARK VINA RESULT:      -4.2      1.076      2.663
REMARK  Name = bg33_4_ligand
REMARK  12 active torsions:
REMARK  status: ('A' for Active; 'I' for Inactive)
REMARK    1  A    between atoms: C_1  and  C_2
REMARK    2  A    between atoms: C_2  and  C_3
REMARK    3  A    between atoms: C_3  and  C_4
REMARK    4  A    between atoms: C_4  and  C_5
REMARK    5  A    between atoms: C_5  and  C_6
REMARK    6  A    between atoms: C_5  and  O_8
REMARK    7  A    between atoms: C_6  and  C_7
REMARK    8  A    between atoms: O_8  and  C_9
REMARK    9  A    between atoms: C_9  and  C_11
REMARK   10  A    between atoms: C_12  and  C_13
REMARK   11  A    between atoms: C_16  and  O_17
REMARK   12  A    between atoms: O_17  and  C_18
REMARK                            x       y       z     vdW  Elec       q    Type
REMARK                         _______ _______ _______ _____ _____    ______ ____
ROOT
ATOM      1  C   UNL     1      -4.494  -5.021   3.380  0.00  0.00    +0.000 C 
ATOM      2  O   UNL     1      -4.705  -4.728   4.596  0.00  0.00    +0.000 OA
ENDROOT
BRANCH   1   3
ATOM      3  C   UNL     1      -4.236  -4.013   2.339  0.00  0.00    +0.000 C 
ATOM      4  C   UNL     1      -3.288  -4.333   1.311  0.00  0.00    +0.000 C 
BRANCH   4   5
ATOM      5  C   UNL     1      -2.893  -3.301   0.267  0.00  0.00    +0.000 A 
ATOM      6  C   UNL     1      -1.772  -2.509   0.391  0.00  0.00    +0.000 A 
ATOM      7  C   UNL     1      -1.423  -1.545  -0.615  0.00  0.00    +0.000 A 
ATOM      8  C   UNL     1      -2.191  -1.375  -1.781  0.00  0.00    +0.000 A 
ATOM      9  C   UNL     1      -3.309  -2.200  -1.889  0.00  0.00    +0.000 A 
ATOM     10  C   UNL     1      -3.642  -3.143  -0.907  0.00  0.00    +0.000 A 
BRANCH   8  11
ATOM     11  O   UNL     1      -1.875  -0.508  -2.808  0.00  0.00    +0.000 OA
ATOM     12  C   UNL     1      -2.933   0.298  -3.386  0.00  0.00    +0.000 C 
ENDBRANCH   8  11
ENDBRANCH   4   5
ENDBRANCH   1   3
BRANCH   1  13
ATOM     13  O   UNL     1      -4.351  -6.421   2.971  0.00  0.00    +0.000 OA
BRANCH  13  14
ATOM     14  C   UNL     1      -3.268  -7.157   3.427  0.00  0.00    +0.000 C 
BRANCH  14  15
ATOM     15  C   UNL     1      -2.991  -8.079   2.204  0.00  0.00    +0.000 C 
ATOM     16  C   UNL     1      -4.062  -7.885   1.081  0.00  0.00    +0.000 C 
ENDBRANCH  14  15
BRANCH  14  17
ATOM     17  C   UNL     1      -3.687  -7.925   4.765  0.00  0.00    +0.000 C 
BRANCH  17  18
ATOM     18  C   UNL     1      -2.857  -7.443   5.927  0.00  0.00    +0.000 C 
BRANCH  18  20
ATOM     19  C   UNL     1      -0.853  -6.047   6.610  0.00  0.00    +0.000 C 
ATOM     20  C   UNL     1      -1.621  -6.667   5.475  0.00  0.00    +0.000 C 
ENDBRANCH  18  20
ENDBRANCH  17  18
ENDBRANCH  14  17
ENDBRANCH  13  14
ENDBRANCH   1  13
TORSDOF 9
ENDMDL
MODEL 8
REMARK VINA RESULT:      -4.2      2.176      3.645
REMARK  Name = bg33_4_ligand
REMARK  12 active torsions:
REMARK  status: ('A' for Active; 'I' for Inactive)
REMARK    1  A    between atoms: C_1  and  C_2
REMARK    2  A    between atoms: C_2  and  C_3
REMARK    3  A    between atoms: C_3  and  C_4
REMARK    4  A    between atoms: C_4  and  C_5
REMARK    5  A    between atoms: C_5  and  C_6
REMARK    6  A    between atoms: C_5  and  O_8
REMARK    7  A    between atoms: C_6  and  C_7
REMARK    8  A    between atoms: O_8  and  C_9
REMARK    9  A    between atoms: C_9  and  C_11
REMARK   10  A    between atoms: C_12  and  C_13
REMARK   11  A    between atoms: C_16  and  O_17
REMARK   12  A    between atoms: O_17  and  C_18
REMARK                            x       y       z     vdW  Elec       q    Type
REMARK                         _______ _______ _______ _____ _____    ______ ____
ROOT
ATOM      1  C   UNL     1      -3.158  -6.076   1.283  0.00  0.00    +0.000 C 
ATOM      2  O   UNL     1      -2.517  -7.001   0.697  0.00  0.00    +0.000 OA
ENDROOT
BRANCH   1   3
ATOM      3  C   UNL     1      -3.488  -4.793   0.644  0.00  0.00    +0.000 C 
ATOM      4  C   UNL     1      -2.411  -3.897   0.333  0.00  0.00    +0.000 C 
BRANCH   4   5
ATOM      5  C   UNL     1      -2.687  -2.512  -0.229  0.00  0.00    +0.000 A 
ATOM      6  C   UNL     1      -3.943  -1.945  -0.227  0.00  0.00    +0.000 A 
ATOM      7  C   UNL     1      -4.172  -0.631  -0.762  0.00  0.00    +0.000 A 
ATOM      8  C   UNL     1      -3.127   0.147  -1.293  0.00  0.00    +0.000 A 
ATOM      9  C   UNL     1      -1.866  -0.442  -1.267  0.00  0.00    +0.000 A 
ATOM     10  C   UNL     1      -1.647  -1.722  -0.739  0.00  0.00    +0.000 A 
BRANCH   8  11
ATOM     11  O   UNL     1      -3.275   1.436  -1.767  0.00  0.00    +0.000 OA
ATOM     12  C   UNL     1      -3.256   2.531  -0.816  0.00  0.00    +0.000 C 
ENDBRANCH   8  11
ENDBRANCH   4   5
ENDBRANCH   1   3
BRANCH   1  13
ATOM     13  O   UNL     1      -3.741  -6.305   2.608  0.00  0.00    +0.000 OA
BRANCH  13  14
ATOM     14  C   UNL     1      -3.751  -5.275   3.536  0.00  0.00    +0.000 C 
BRANCH  14  15
ATOM     15  C   UNL     1      -2.780  -5.832   4.617  0.00  0.00    +0.000 C 
ATOM     16  C   UNL     1      -2.881  -7.387   4.739  0.00  0.00    +0.000 C 
ENDBRANCH  14  15
BRANCH  14  17
ATOM     17  C   UNL     1      -5.251  -5.039   4.037  0.00  0.00    +0.000 C 
BRANCH  17  18
ATOM     18  C   UNL     1      -5.476  -3.582   4.350  0.00  0.00    +0.000 C 
BRANCH  18  20
ATOM     19  C   UNL     1      -5.519  -1.320   3.206  0.00  0.00    +0.000 C 
ATOM     20  C   UNL     1      -4.846  -2.661   3.307  0.00  0.00    +0.000 C 
ENDBRANCH  18  20
ENDBRANCH  17  18
ENDBRANCH  14  17
ENDBRANCH  13  14
ENDBRANCH   1  13
TORSDOF 9
ENDMDL
MODEL 9
REMARK VINA RESULT:      -4.2      2.564      7.965
REMARK  Name = bg33_4_ligand
REMARK  12 active torsions:
REMARK  status: ('A' for Active; 'I' for Inactive)
REMARK    1  A    between atoms: C_1  and  C_2
REMARK    2  A    between atoms: C_2  and  C_3
REMARK    3  A    between atoms: C_3  and  C_4
REMARK    4  A    between atoms: C_4  and  C_5
REMARK    5  A    between atoms: C_5  and  C_6
REMARK    6  A    between atoms: C_5  and  O_8
REMARK    7  A    between atoms: C_6  and  C_7
REMARK    8  A    between atoms: O_8  and  C_9
REMARK    9  A    between atoms: C_9  and  C_11
REMARK   10  A    between atoms: C_12  and  C_13
REMARK   11  A    between atoms: C_16  and  O_17
REMARK   12  A    between atoms: O_17  and  C_18
REMARK                            x       y       z     vdW  Elec       q    Type
REMARK                         _______ _______ _______ _____ _____    ______ ____
ROOT
ATOM      1  C   UNL     1      -2.404  -1.681  -1.141  0.00  0.00    +0.000 C 
ATOM      2  O   UNL     1      -1.423  -1.165  -1.757  0.00  0.00    +0.000 OA
ENDROOT
BRANCH   1   3
ATOM      3  C   UNL     1      -2.253  -2.707  -0.097  0.00  0.00    +0.000 C 
ATOM      4  C   UNL     1      -3.275  -3.708   0.017  0.00  0.00    +0.000 C 
BRANCH   4   5
ATOM      5  C   UNL     1      -3.239  -4.733   1.139  0.00  0.00    +0.000 A 
ATOM      6  C   UNL     1      -3.450  -4.399   2.459  0.00  0.00    +0.000 A 
ATOM      7  C   UNL     1      -3.414  -5.392   3.497  0.00  0.00    +0.000 A 
ATOM      8  C   UNL     1      -3.183  -6.751   3.217  0.00  0.00    +0.000 A 
ATOM      9  C   UNL     1      -2.990  -7.064   1.874  0.00  0.00    +0.000 A 
ATOM     10  C   UNL     1      -3.032  -6.092   0.865  0.00  0.00    +0.000 A 
BRANCH   8  11
ATOM     11  O   UNL     1      -3.194  -7.758   4.163  0.00  0.00    +0.000 OA
ATOM     12  C   UNL     1      -2.810  -7.435   5.524  0.00  0.00    +0.000 C 
ENDBRANCH   8  11
ENDBRANCH   4   5
ENDBRANCH   1   3
BRANCH   1  13
ATOM     13  O   UNL     1      -3.759  -1.161  -1.342  0.00  0.00    +0.000 OA
BRANCH  13  14
ATOM     14  C   UNL     1      -4.172  -0.041  -0.635  0.00  0.00    +0.000 C 
BRANCH  14  15
ATOM     15  C   UNL     1      -5.626  -0.444  -0.252  0.00  0.00    +0.000 C 
ATOM     16  C   UNL     1      -5.694  -1.068   1.180  0.00  0.00    +0.000 C 
ENDBRANCH  14  15
BRANCH  14  17
ATOM     17  C   UNL     1      -4.058   1.243  -1.580  0.00  0.00    +0.000 C 
BRANCH  17  18
ATOM     18  C   UNL     1      -3.180   2.288  -0.940  0.00  0.00    +0.000 C 
BRANCH  18  20
ATOM     19  C   UNL     1      -4.621   4.375  -0.973  0.00  0.00    +0.000 C 
ATOM     20  C   UNL     1      -3.984   3.304  -0.130  0.00  0.00    +0.000 C 
ENDBRANCH  18  20
ENDBRANCH  17  18
ENDBRANCH  14  17
ENDBRANCH  13  14
ENDBRANCH   1  13
TORSDOF 9
ENDMDL
