REMARK  Name = orig_f12_ligand
REMARK  12 active torsions:
REMARK  status: ('A' for Active; 'I' for Inactive)
REMARK    1  A    between atoms: C_1  and  C_2
REMARK    2  A    between atoms: C_2  and  C_3
REMARK    3  A    between atoms: C_3  and  C_4
REMARK    4  A    between atoms: C_4  and  C_5
REMARK    5  A    between atoms: C_5  and  C_6
REMARK    6  A    between atoms: C_5  and  O_8
REMARK    7  A    between atoms: C_6  and  C_7
REMARK    8  A    between atoms: O_8  and  C_9
REMARK    9  A    between atoms: C_9  and  C_11
REMARK   10  A    between atoms: C_12  and  C_13
REMARK   11  A    between atoms: C_16  and  O_17
REMARK   12  A    between atoms: O_17  and  C_18
REMARK                            x       y       z     vdW  Elec       q    Type
REMARK                         _______ _______ _______ _____ _____    ______ ____
ROOT
ATOM      1  C   UNL     1      -7.203   3.435   2.490  0.00  0.00    +0.000 C 
ATOM      2  O   UNL     1      -8.209   3.398   1.816  0.00  0.00    +0.000 OA
ENDROOT
BRANCH   1   3
ATOM      3  C   UNL     1      -6.437   4.656   2.773  0.00  0.00    +0.000 C 
ATOM      4  C   UNL     1      -6.590   5.724   1.982  0.00  0.00    +0.000 C 
BRANCH   4   5
ATOM      5  C   UNL     1      -5.773   6.941   2.128  0.00  0.00    +0.000 A 
ATOM      6  C   UNL     1      -4.923   7.128   3.194  0.00  0.00    +0.000 A 
ATOM      7  C   UNL     1      -4.142   8.268   3.281  0.00  0.00    +0.000 A 
ATOM      8  C   UNL     1      -4.219   9.226   2.306  0.00  0.00    +0.000 A 
ATOM      9  C   UNL     1      -5.067   9.046   1.230  0.00  0.00    +0.000 A 
ATOM     10  C   UNL     1      -5.855   7.904   1.152  0.00  0.00    +0.000 A 
BRANCH   8  11
ATOM     11  O   UNL     1      -3.461  10.361   2.330  0.00  0.00    +0.000 OA
ATOM     12  C   UNL     1      -2.827  10.763   3.538  0.00  0.00    +0.000 C 
ENDBRANCH   8  11
ENDBRANCH   4   5
ENDBRANCH   1   3
BRANCH   1  13
ATOM     13  O   UNL     1      -6.647   2.353   3.014  0.00  0.00    +0.000 OA
BRANCH  13  14
ATOM     14  C   UNL     1      -7.056   1.084   2.563  0.00  0.00    +0.000 C 
BRANCH  14  15
ATOM     15  C   UNL     1      -5.879   0.364   1.925  0.00  0.00    +0.000 C 
ATOM     16  C   UNL     1      -4.512   0.898   2.312  0.00  0.00    +0.000 C 
ENDBRANCH  14  15
BRANCH  14  17
ATOM     17  C   UNL     1      -7.595   0.303   3.742  0.00  0.00    +0.000 C 
BRANCH  17  18
ATOM     18  C   UNL     1      -8.847   0.873   4.325  0.00  0.00    +0.000 C 
BRANCH  18  20
ATOM     19  C   UNL     1     -10.645   0.597   6.034  0.00  0.00    +0.000 C 
ATOM     20  C   UNL     1      -9.368   0.034   5.457  0.00  0.00    +0.000 C 
ENDBRANCH  18  20
ENDBRANCH  17  18
ENDBRANCH  14  17
ENDBRANCH  13  14
ENDBRANCH   1  13
TORSDOF 9
