MODEL 1
REMARK VINA RESULT:      -2.7      0.000      0.000
REMARK  Name = orig_f12_ligand
REMARK  12 active torsions:
REMARK  status: ('A' for Active; 'I' for Inactive)
REMARK    1  A    between atoms: C_1  and  C_2
REMARK    2  A    between atoms: C_2  and  C_3
REMARK    3  A    between atoms: C_3  and  C_4
REMARK    4  A    between atoms: C_4  and  C_5
REMARK    5  A    between atoms: C_5  and  C_6
REMARK    6  A    between atoms: C_5  and  O_8
REMARK    7  A    between atoms: C_6  and  C_7
REMARK    8  A    between atoms: O_8  and  C_9
REMARK    9  A    between atoms: C_9  and  C_11
REMARK   10  A    between atoms: C_12  and  C_13
REMARK   11  A    between atoms: C_16  and  O_17
REMARK   12  A    between atoms: O_17  and  C_18
REMARK                            x       y       z     vdW  Elec       q    Type
REMARK                         _______ _______ _______ _____ _____    ______ ____
ROOT
ATOM      1  C   UNL     1      -7.126  -1.345  -4.444  0.00  0.00    +0.000 C 
ATOM      2  O   UNL     1      -8.289  -1.469  -4.761  0.00  0.00    +0.000 OA
ENDROOT
BRANCH   1   3
ATOM      3  C   UNL     1      -6.414  -0.061  -4.387  0.00  0.00    +0.000 C 
ATOM      4  C   UNL     1      -5.083  -0.056  -4.245  0.00  0.00    +0.000 C 
BRANCH   4   5
ATOM      5  C   UNL     1      -4.312   1.185  -4.061  0.00  0.00    +0.000 A 
ATOM      6  C   UNL     1      -3.337   1.304  -3.097  0.00  0.00    +0.000 A 
ATOM      7  C   UNL     1      -2.605   2.473  -2.976  0.00  0.00    +0.000 A 
ATOM      8  C   UNL     1      -2.856   3.527  -3.813  0.00  0.00    +0.000 A 
ATOM      9  C   UNL     1      -3.830   3.416  -4.786  0.00  0.00    +0.000 A 
ATOM     10  C   UNL     1      -4.568   2.244  -4.898  0.00  0.00    +0.000 A 
BRANCH   8  11
ATOM     11  O   UNL     1      -2.155   4.697  -3.751  0.00  0.00    +0.000 OA
ATOM     12  C   UNL     1      -0.852   4.712  -3.180  0.00  0.00    +0.000 C 
ENDBRANCH   8  11
ENDBRANCH   4   5
ENDBRANCH   1   3
BRANCH   1  13
ATOM     13  O   UNL     1      -6.344  -2.374  -4.157  0.00  0.00    +0.000 OA
BRANCH  13  14
ATOM     14  C   UNL     1      -6.673  -3.203  -3.068  0.00  0.00    +0.000 C 
BRANCH  14  15
ATOM     15  C   UNL     1      -6.758  -4.648  -3.533  0.00  0.00    +0.000 C 
ATOM     16  C   UNL     1      -5.654  -5.555  -3.022  0.00  0.00    +0.000 C 
ENDBRANCH  14  15
BRANCH  14  17
ATOM     17  C   UNL     1      -5.615  -3.040  -1.999  0.00  0.00    +0.000 C 
BRANCH  17  18
ATOM     18  C   UNL     1      -5.980  -2.062  -0.929  0.00  0.00    +0.000 C 
BRANCH  18  20
ATOM     19  C   UNL     1      -5.486   0.284  -0.235  0.00  0.00    +0.000 C 
ATOM     20  C   UNL     1      -4.915  -1.021  -0.737  0.00  0.00    +0.000 C 
ENDBRANCH  18  20
ENDBRANCH  17  18
ENDBRANCH  14  17
ENDBRANCH  13  14
ENDBRANCH   1  13
TORSDOF 9
ENDMDL
MODEL 2
REMARK VINA RESULT:      -2.7      2.525      7.320
REMARK  Name = orig_f12_ligand
REMARK  12 active torsions:
REMARK  status: ('A' for Active; 'I' for Inactive)
REMARK    1  A    between atoms: C_1  and  C_2
REMARK    2  A    between atoms: C_2  and  C_3
REMARK    3  A    between atoms: C_3  and  C_4
REMARK    4  A    between atoms: C_4  and  C_5
REMARK    5  A    between atoms: C_5  and  C_6
REMARK    6  A    between atoms: C_5  and  O_8
REMARK    7  A    between atoms: C_6  and  C_7
REMARK    8  A    between atoms: O_8  and  C_9
REMARK    9  A    between atoms: C_9  and  C_11
REMARK   10  A    between atoms: C_12  and  C_13
REMARK   11  A    between atoms: C_16  and  O_17
REMARK   12  A    between atoms: O_17  and  C_18
REMARK                            x       y       z     vdW  Elec       q    Type
REMARK                         _______ _______ _______ _____ _____    ______ ____
ROOT
ATOM      1  C   UNL     1      -3.423   1.634   0.891  0.00  0.00    +0.000 C 
ATOM      2  O   UNL     1      -3.015   1.564   2.029  0.00  0.00    +0.000 OA
ENDROOT
BRANCH   1   3
ATOM      3  C   UNL     1      -4.007   0.510   0.147  0.00  0.00    +0.000 C 
ATOM      4  C   UNL     1      -5.098  -0.098   0.627  0.00  0.00    +0.000 C 
BRANCH   4   5
ATOM      5  C   UNL     1      -5.672  -1.303   0.005  0.00  0.00    +0.000 A 
ATOM      6  C   UNL     1      -6.686  -2.021   0.598  0.00  0.00    +0.000 A 
ATOM      7  C   UNL     1      -7.227  -3.128  -0.033  0.00  0.00    +0.000 A 
ATOM      8  C   UNL     1      -6.747  -3.524  -1.252  0.00  0.00    +0.000 A 
ATOM      9  C   UNL     1      -5.732  -2.808  -1.857  0.00  0.00    +0.000 A 
ATOM     10  C   UNL     1      -5.186  -1.702  -1.216  0.00  0.00    +0.000 A 
BRANCH   8  11
ATOM     11  O   UNL     1      -7.253  -4.596  -1.928  0.00  0.00    +0.000 OA
ATOM     12  C   UNL     1      -6.697  -4.968  -3.183  0.00  0.00    +0.000 C 
ENDBRANCH   8  11
ENDBRANCH   4   5
ENDBRANCH   1   3
BRANCH   1  13
ATOM     13  O   UNL     1      -3.341   2.737   0.163  0.00  0.00    +0.000 OA
BRANCH  13  14
ATOM     14  C   UNL     1      -4.021   2.800  -1.068  0.00  0.00    +0.000 C 
BRANCH  14  15
ATOM     15  C   UNL     1      -5.230   3.712  -0.940  0.00  0.00    +0.000 C 
ATOM     16  C   UNL     1      -6.560   3.070  -1.285  0.00  0.00    +0.000 C 
ENDBRANCH  14  15
BRANCH  14  17
ATOM     17  C   UNL     1      -3.064   3.312  -2.123  0.00  0.00    +0.000 C 
BRANCH  17  18
ATOM     18  C   UNL     1      -3.178   2.610  -3.437  0.00  0.00    +0.000 C 
BRANCH  18  20
ATOM     19  C   UNL     1      -4.812   0.845  -4.102  0.00  0.00    +0.000 C 
ATOM     20  C   UNL     1      -3.597   1.177  -3.269  0.00  0.00    +0.000 C 
ENDBRANCH  18  20
ENDBRANCH  17  18
ENDBRANCH  14  17
ENDBRANCH  13  14
ENDBRANCH   1  13
TORSDOF 9
ENDMDL
MODEL 3
REMARK VINA RESULT:      -2.7      2.766      5.373
REMARK  Name = orig_f12_ligand
REMARK  12 active torsions:
REMARK  status: ('A' for Active; 'I' for Inactive)
REMARK    1  A    between atoms: C_1  and  C_2
REMARK    2  A    between atoms: C_2  and  C_3
REMARK    3  A    between atoms: C_3  and  C_4
REMARK    4  A    between atoms: C_4  and  C_5
REMARK    5  A    between atoms: C_5  and  C_6
REMARK    6  A    between atoms: C_5  and  O_8
REMARK    7  A    between atoms: C_6  and  C_7
REMARK    8  A    between atoms: O_8  and  C_9
REMARK    9  A    between atoms: C_9  and  C_11
REMARK   10  A    between atoms: C_12  and  C_13
REMARK   11  A    between atoms: C_16  and  O_17
REMARK   12  A    between atoms: O_17  and  C_18
REMARK                            x       y       z     vdW  Elec       q    Type
REMARK                         _______ _______ _______ _____ _____    ______ ____
ROOT
ATOM      1  C   UNL     1      -5.783  -2.211  -2.838  0.00  0.00    +0.000 C 
ATOM      2  O   UNL     1      -5.651  -3.347  -3.239  0.00  0.00    +0.000 OA
ENDROOT
BRANCH   1   3
ATOM      3  C   UNL     1      -5.109  -1.664  -1.653  0.00  0.00    +0.000 C 
ATOM      4  C   UNL     1      -5.840  -1.113  -0.678  0.00  0.00    +0.000 C 
BRANCH   4   5
ATOM      5  C   UNL     1      -5.233  -0.439   0.483  0.00  0.00    +0.000 A 
ATOM      6  C   UNL     1      -5.531  -0.801   1.777  0.00  0.00    +0.000 A 
ATOM      7  C   UNL     1      -4.914  -0.170   2.844  0.00  0.00    +0.000 A 
ATOM      8  C   UNL     1      -4.006   0.829   2.616  0.00  0.00    +0.000 A 
ATOM      9  C   UNL     1      -3.698   1.197   1.321  0.00  0.00    +0.000 A 
ATOM     10  C   UNL     1      -4.327   0.567   0.253  0.00  0.00    +0.000 A 
BRANCH   8  11
ATOM     11  O   UNL     1      -3.355   1.474   3.628  0.00  0.00    +0.000 OA
ATOM     12  C   UNL     1      -3.368   0.926   4.940  0.00  0.00    +0.000 C 
ENDBRANCH   8  11
ENDBRANCH   4   5
ENDBRANCH   1   3
BRANCH   1  13
ATOM     13  O   UNL     1      -6.602  -1.338  -3.405  0.00  0.00    +0.000 OA
BRANCH  13  14
ATOM     14  C   UNL     1      -6.076  -0.384  -4.297  0.00  0.00    +0.000 C 
BRANCH  14  15
ATOM     15  C   UNL     1      -6.550  -0.689  -5.709  0.00  0.00    +0.000 C 
ATOM     16  C   UNL     1      -6.351   0.435  -6.711  0.00  0.00    +0.000 C 
ENDBRANCH  14  15
BRANCH  14  17
ATOM     17  C   UNL     1      -6.532   0.991  -3.857  0.00  0.00    +0.000 C 
BRANCH  17  18
ATOM     18  C   UNL     1      -5.472   1.790  -3.173  0.00  0.00    +0.000 C 
BRANCH  18  20
ATOM     19  C   UNL     1      -3.033   1.287  -3.001  0.00  0.00    +0.000 C 
ATOM     20  C   UNL     1      -4.162   1.723  -3.905  0.00  0.00    +0.000 C 
ENDBRANCH  18  20
ENDBRANCH  17  18
ENDBRANCH  14  17
ENDBRANCH  13  14
ENDBRANCH   1  13
TORSDOF 9
ENDMDL
MODEL 4
REMARK VINA RESULT:      -2.6      1.415      1.981
REMARK  Name = orig_f12_ligand
REMARK  12 active torsions:
REMARK  status: ('A' for Active; 'I' for Inactive)
REMARK    1  A    between atoms: C_1  and  C_2
REMARK    2  A    between atoms: C_2  and  C_3
REMARK    3  A    between atoms: C_3  and  C_4
REMARK    4  A    between atoms: C_4  and  C_5
REMARK    5  A    between atoms: C_5  and  C_6
REMARK    6  A    between atoms: C_5  and  O_8
REMARK    7  A    between atoms: C_6  and  C_7
REMARK    8  A    between atoms: O_8  and  C_9
REMARK    9  A    between atoms: C_9  and  C_11
REMARK   10  A    between atoms: C_12  and  C_13
REMARK   11  A    between atoms: C_16  and  O_17
REMARK   12  A    between atoms: O_17  and  C_18
REMARK                            x       y       z     vdW  Elec       q    Type
REMARK                         _______ _______ _______ _____ _____    ______ ____
ROOT
ATOM      1  C   UNL     1      -6.541  -1.306  -4.518  0.00  0.00    +0.000 C 
ATOM      2  O   UNL     1      -7.681  -1.683  -4.678  0.00  0.00    +0.000 OA
ENDROOT
BRANCH   1   3
ATOM      3  C   UNL     1      -5.947  -0.146  -5.196  0.00  0.00    +0.000 C 
ATOM      4  C   UNL     1      -5.128   0.662  -4.514  0.00  0.00    +0.000 C 
BRANCH   4   5
ATOM      5  C   UNL     1      -4.588   1.908  -5.086  0.00  0.00    +0.000 A 
ATOM      6  C   UNL     1      -4.845   2.288  -6.384  0.00  0.00    +0.000 A 
ATOM      7  C   UNL     1      -4.352   3.484  -6.878  0.00  0.00    +0.000 A 
ATOM      8  C   UNL     1      -3.593   4.295  -6.077  0.00  0.00    +0.000 A 
ATOM      9  C   UNL     1      -3.332   3.923  -4.772  0.00  0.00    +0.000 A 
ATOM     10  C   UNL     1      -3.823   2.718  -4.283  0.00  0.00    +0.000 A 
BRANCH   8  11
ATOM     11  O   UNL     1      -3.095   5.492  -6.504  0.00  0.00    +0.000 OA
ATOM     12  C   UNL     1      -1.709   5.774  -6.358  0.00  0.00    +0.000 C 
ENDBRANCH   8  11
ENDBRANCH   4   5
ENDBRANCH   1   3
BRANCH   1  13
ATOM     13  O   UNL     1      -5.676  -1.939  -3.740  0.00  0.00    +0.000 OA
BRANCH  13  14
ATOM     14  C   UNL     1      -6.158  -2.765  -2.707  0.00  0.00    +0.000 C 
BRANCH  14  15
ATOM     15  C   UNL     1      -5.271  -3.992  -2.577  0.00  0.00    +0.000 C 
ATOM     16  C   UNL     1      -5.901  -5.293  -3.042  0.00  0.00    +0.000 C 
ENDBRANCH  14  15
BRANCH  14  17
ATOM     17  C   UNL     1      -6.174  -1.968  -1.420  0.00  0.00    +0.000 C 
BRANCH  17  18
ATOM     18  C   UNL     1      -4.892  -1.259  -1.131  0.00  0.00    +0.000 C 
BRANCH  18  20
ATOM     19  C   UNL     1      -6.549   0.607  -1.094  0.00  0.00    +0.000 C 
ATOM     20  C   UNL     1      -5.109   0.207  -0.881  0.00  0.00    +0.000 C 
ENDBRANCH  18  20
ENDBRANCH  17  18
ENDBRANCH  14  17
ENDBRANCH  13  14
ENDBRANCH   1  13
TORSDOF 9
ENDMDL
MODEL 5
REMARK VINA RESULT:      -2.6      2.764      5.858
REMARK  Name = orig_f12_ligand
REMARK  12 active torsions:
REMARK  status: ('A' for Active; 'I' for Inactive)
REMARK    1  A    between atoms: C_1  and  C_2
REMARK    2  A    between atoms: C_2  and  C_3
REMARK    3  A    between atoms: C_3  and  C_4
REMARK    4  A    between atoms: C_4  and  C_5
REMARK    5  A    between atoms: C_5  and  C_6
REMARK    6  A    between atoms: C_5  and  O_8
REMARK    7  A    between atoms: C_6  and  C_7
REMARK    8  A    between atoms: O_8  and  C_9
REMARK    9  A    between atoms: C_9  and  C_11
REMARK   10  A    between atoms: C_12  and  C_13
REMARK   11  A    between atoms: C_16  and  O_17
REMARK   12  A    between atoms: O_17  and  C_18
REMARK                            x       y       z     vdW  Elec       q    Type
REMARK                         _______ _______ _______ _____ _____    ______ ____
ROOT
ATOM      1  C   UNL     1      -5.489   0.178  -4.852  0.00  0.00    +0.000 C 
ATOM      2  O   UNL     1      -5.655  -0.810  -5.533  0.00  0.00    +0.000 OA
ENDROOT
BRANCH   1   3
ATOM      3  C   UNL     1      -4.882   0.173  -3.514  0.00  0.00    +0.000 C 
ATOM      4  C   UNL     1      -5.636   0.477  -2.451  0.00  0.00    +0.000 C 
BRANCH   4   5
ATOM      5  C   UNL     1      -5.076   0.609  -1.095  0.00  0.00    +0.000 A 
ATOM      6  C   UNL     1      -5.577  -0.096  -0.025  0.00  0.00    +0.000 A 
ATOM      7  C   UNL     1      -5.003   0.024   1.229  0.00  0.00    +0.000 A 
ATOM      8  C   UNL     1      -3.933   0.859   1.415  0.00  0.00    +0.000 A 
ATOM      9  C   UNL     1      -3.421   1.569   0.346  0.00  0.00    +0.000 A 
ATOM     10  C   UNL     1      -4.006   1.451  -0.909  0.00  0.00    +0.000 A 
BRANCH   8  11
ATOM     11  O   UNL     1      -3.316   1.004   2.624  0.00  0.00    +0.000 OA
ATOM     12  C   UNL     1      -3.769   0.254   3.744  0.00  0.00    +0.000 C 
ENDBRANCH   8  11
ENDBRANCH   4   5
ENDBRANCH   1   3
BRANCH   1  13
ATOM     13  O   UNL     1      -5.887   1.385  -5.225  0.00  0.00    +0.000 OA
BRANCH  13  14
ATOM     14  C   UNL     1      -4.922   2.348  -5.575  0.00  0.00    +0.000 C 
BRANCH  14  15
ATOM     15  C   UNL     1      -4.951   2.578  -7.078  0.00  0.00    +0.000 C 
ATOM     16  C   UNL     1      -3.984   3.632  -7.586  0.00  0.00    +0.000 C 
ENDBRANCH  14  15
BRANCH  14  17
ATOM     17  C   UNL     1      -5.222   3.628  -4.825  0.00  0.00    +0.000 C 
BRANCH  17  18
ATOM     18  C   UNL     1      -4.257   3.925  -3.723  0.00  0.00    +0.000 C 
BRANCH  18  20
ATOM     19  C   UNL     1      -1.892   3.733  -2.949  0.00  0.00    +0.000 C 
ATOM     20  C   UNL     1      -2.913   3.304  -3.976  0.00  0.00    +0.000 C 
ENDBRANCH  18  20
ENDBRANCH  17  18
ENDBRANCH  14  17
ENDBRANCH  13  14
ENDBRANCH   1  13
TORSDOF 9
ENDMDL
MODEL 6
REMARK VINA RESULT:      -2.6      2.683      5.322
REMARK  Name = orig_f12_ligand
REMARK  12 active torsions:
REMARK  status: ('A' for Active; 'I' for Inactive)
REMARK    1  A    between atoms: C_1  and  C_2
REMARK    2  A    between atoms: C_2  and  C_3
REMARK    3  A    between atoms: C_3  and  C_4
REMARK    4  A    between atoms: C_4  and  C_5
REMARK    5  A    between atoms: C_5  and  C_6
REMARK    6  A    between atoms: C_5  and  O_8
REMARK    7  A    between atoms: C_6  and  C_7
REMARK    8  A    between atoms: O_8  and  C_9
REMARK    9  A    between atoms: C_9  and  C_11
REMARK   10  A    between atoms: C_12  and  C_13
REMARK   11  A    between atoms: C_16  and  O_17
REMARK   12  A    between atoms: O_17  and  C_18
REMARK                            x       y       z     vdW  Elec       q    Type
REMARK                         _______ _______ _______ _____ _____    ______ ____
ROOT
ATOM      1  C   UNL     1      -5.307   0.013  -4.237  0.00  0.00    +0.000 C 
ATOM      2  O   UNL     1      -4.778   0.867  -4.913  0.00  0.00    +0.000 OA
ENDROOT
BRANCH   1   3
ATOM      3  C   UNL     1      -5.568   0.136  -2.796  0.00  0.00    +0.000 C 
ATOM      4  C   UNL     1      -4.637  -0.267  -1.925  0.00  0.00    +0.000 C 
BRANCH   4   5
ATOM      5  C   UNL     1      -4.869  -0.285  -0.470  0.00  0.00    +0.000 A 
ATOM      6  C   UNL     1      -5.702  -1.205   0.126  0.00  0.00    +0.000 A 
ATOM      7  C   UNL     1      -5.869  -1.218   1.500  0.00  0.00    +0.000 A 
ATOM      8  C   UNL     1      -5.211  -0.303   2.278  0.00  0.00    +0.000 A 
ATOM      9  C   UNL     1      -4.370   0.623   1.689  0.00  0.00    +0.000 A 
ATOM     10  C   UNL     1      -4.213   0.636   0.309  0.00  0.00    +0.000 A 
BRANCH   8  11
ATOM     11  O   UNL     1      -5.324  -0.279   3.638  0.00  0.00    +0.000 OA
ATOM     12  C   UNL     1      -6.269   0.587   4.254  0.00  0.00    +0.000 C 
ENDBRANCH   8  11
ENDBRANCH   4   5
ENDBRANCH   1   3
BRANCH   1  13
ATOM     13  O   UNL     1      -5.670  -1.166  -4.720  0.00  0.00    +0.000 OA
BRANCH  13  14
ATOM     14  C   UNL     1      -7.031  -1.523  -4.710  0.00  0.00    +0.000 C 
BRANCH  14  15
ATOM     15  C   UNL     1      -7.603  -1.395  -6.113  0.00  0.00    +0.000 C 
ATOM     16  C   UNL     1      -8.539  -0.219  -6.322  0.00  0.00    +0.000 C 
ENDBRANCH  14  15
BRANCH  14  17
ATOM     17  C   UNL     1      -7.156  -2.942  -4.201  0.00  0.00    +0.000 C 
BRANCH  17  18
ATOM     18  C   UNL     1      -7.524  -3.037  -2.756  0.00  0.00    +0.000 C 
BRANCH  18  20
ATOM     19  C   UNL     1      -5.221  -3.980  -2.564  0.00  0.00    +0.000 C 
ATOM     20  C   UNL     1      -6.627  -3.985  -2.012  0.00  0.00    +0.000 C 
ENDBRANCH  18  20
ENDBRANCH  17  18
ENDBRANCH  14  17
ENDBRANCH  13  14
ENDBRANCH   1  13
TORSDOF 9
ENDMDL
MODEL 7
REMARK VINA RESULT:      -2.5      2.369      7.290
REMARK  Name = orig_f12_ligand
REMARK  12 active torsions:
REMARK  status: ('A' for Active; 'I' for Inactive)
REMARK    1  A    between atoms: C_1  and  C_2
REMARK    2  A    between atoms: C_2  and  C_3
REMARK    3  A    between atoms: C_3  and  C_4
REMARK    4  A    between atoms: C_4  and  C_5
REMARK    5  A    between atoms: C_5  and  C_6
REMARK    6  A    between atoms: C_5  and  O_8
REMARK    7  A    between atoms: C_6  and  C_7
REMARK    8  A    between atoms: O_8  and  C_9
REMARK    9  A    between atoms: C_9  and  C_11
REMARK   10  A    between atoms: C_12  and  C_13
REMARK   11  A    between atoms: C_16  and  O_17
REMARK   12  A    between atoms: O_17  and  C_18
REMARK                            x       y       z     vdW  Elec       q    Type
REMARK                         _______ _______ _______ _____ _____    ______ ____
ROOT
ATOM      1  C   UNL     1      -3.792   0.991   0.159  0.00  0.00    +0.000 C 
ATOM      2  O   UNL     1      -3.285   0.991   1.259  0.00  0.00    +0.000 OA
ENDROOT
BRANCH   1   3
ATOM      3  C   UNL     1      -4.887   0.102  -0.251  0.00  0.00    +0.000 C 
ATOM      4  C   UNL     1      -4.618  -0.959  -1.020  0.00  0.00    +0.000 C 
BRANCH   4   5
ATOM      5  C   UNL     1      -5.673  -1.827  -1.570  0.00  0.00    +0.000 A 
ATOM      6  C   UNL     1      -6.994  -1.443  -1.600  0.00  0.00    +0.000 A 
ATOM      7  C   UNL     1      -7.956  -2.270  -2.157  0.00  0.00    +0.000 A 
ATOM      8  C   UNL     1      -7.596  -3.485  -2.675  0.00  0.00    +0.000 A 
ATOM      9  C   UNL     1      -6.272  -3.879  -2.652  0.00  0.00    +0.000 A 
ATOM     10  C   UNL     1      -5.313  -3.049  -2.084  0.00  0.00    +0.000 A 
BRANCH   8  11
ATOM     11  O   UNL     1      -8.497  -4.333  -3.252  0.00  0.00    +0.000 OA
ATOM     12  C   UNL     1      -8.050  -5.324  -4.169  0.00  0.00    +0.000 C 
ENDBRANCH   8  11
ENDBRANCH   4   5
ENDBRANCH   1   3
BRANCH   1  13
ATOM     13  O   UNL     1      -3.374   1.771  -0.827  0.00  0.00    +0.000 OA
BRANCH  13  14
ATOM     14  C   UNL     1      -4.269   2.696  -1.396  0.00  0.00    +0.000 C 
BRANCH  14  15
ATOM     15  C   UNL     1      -4.142   4.034  -0.684  0.00  0.00    +0.000 C 
ATOM     16  C   UNL     1      -2.723   4.551  -0.535  0.00  0.00    +0.000 C 
ENDBRANCH  14  15
BRANCH  14  17
ATOM     17  C   UNL     1      -3.950   2.834  -2.869  0.00  0.00    +0.000 C 
BRANCH  17  18
ATOM     18  C   UNL     1      -4.043   1.552  -3.631  0.00  0.00    +0.000 C 
BRANCH  18  20
ATOM     19  C   UNL     1      -5.559  -0.051  -4.798  0.00  0.00    +0.000 C 
ATOM     20  C   UNL     1      -5.467   1.188  -3.939  0.00  0.00    +0.000 C 
ENDBRANCH  18  20
ENDBRANCH  17  18
ENDBRANCH  14  17
ENDBRANCH  13  14
ENDBRANCH   1  13
TORSDOF 9
ENDMDL
MODEL 8
REMARK VINA RESULT:      -2.5      2.723      5.263
REMARK  Name = orig_f12_ligand
REMARK  12 active torsions:
REMARK  status: ('A' for Active; 'I' for Inactive)
REMARK    1  A    between atoms: C_1  and  C_2
REMARK    2  A    between atoms: C_2  and  C_3
REMARK    3  A    between atoms: C_3  and  C_4
REMARK    4  A    between atoms: C_4  and  C_5
REMARK    5  A    between atoms: C_5  and  C_6
REMARK    6  A    between atoms: C_5  and  O_8
REMARK    7  A    between atoms: C_6  and  C_7
REMARK    8  A    between atoms: O_8  and  C_9
REMARK    9  A    between atoms: C_9  and  C_11
REMARK   10  A    between atoms: C_12  and  C_13
REMARK   11  A    between atoms: C_16  and  O_17
REMARK   12  A    between atoms: O_17  and  C_18
REMARK                            x       y       z     vdW  Elec       q    Type
REMARK                         _______ _______ _______ _____ _____    ______ ____
ROOT
ATOM      1  C   UNL     1      -6.110  -2.730  -3.229  0.00  0.00    +0.000 C 
ATOM      2  O   UNL     1      -6.525  -3.866  -3.159  0.00  0.00    +0.000 OA
ENDROOT
BRANCH   1   3
ATOM      3  C   UNL     1      -5.472  -2.009  -2.119  0.00  0.00    +0.000 C 
ATOM      4  C   UNL     1      -6.110  -1.913  -0.947  0.00  0.00    +0.000 C 
BRANCH   4   5
ATOM      5  C   UNL     1      -5.592  -1.108   0.173  0.00  0.00    +0.000 A 
ATOM      6  C   UNL     1      -4.752  -0.036  -0.024  0.00  0.00    +0.000 A 
ATOM      7  C   UNL     1      -4.314   0.722   1.048  0.00  0.00    +0.000 A 
ATOM      8  C   UNL     1      -4.708   0.400   2.320  0.00  0.00    +0.000 A 
ATOM      9  C   UNL     1      -5.553  -0.673   2.527  0.00  0.00    +0.000 A 
ATOM     10  C   UNL     1      -5.984  -1.435   1.448  0.00  0.00    +0.000 A 
BRANCH   8  11
ATOM     11  O   UNL     1      -4.321   1.121   3.413  0.00  0.00    +0.000 OA
ATOM     12  C   UNL     1      -3.202   1.994   3.325  0.00  0.00    +0.000 C 
ENDBRANCH   8  11
ENDBRANCH   4   5
ENDBRANCH   1   3
BRANCH   1  13
ATOM     13  O   UNL     1      -6.231  -1.985  -4.317  0.00  0.00    +0.000 OA
BRANCH  13  14
ATOM     14  C   UNL     1      -6.478  -0.606  -4.181  0.00  0.00    +0.000 C 
BRANCH  14  15
ATOM     15  C   UNL     1      -5.586   0.170  -5.138  0.00  0.00    +0.000 C 
ATOM     16  C   UNL     1      -4.628   1.144  -4.477  0.00  0.00    +0.000 C 
ENDBRANCH  14  15
BRANCH  14  17
ATOM     17  C   UNL     1      -7.940  -0.347  -4.472  0.00  0.00    +0.000 C 
BRANCH  17  18
ATOM     18  C   UNL     1      -8.536   0.750  -3.650  0.00  0.00    +0.000 C 
BRANCH  18  20
ATOM     19  C   UNL     1      -7.317   2.182  -2.009  0.00  0.00    +0.000 C 
ATOM     20  C   UNL     1      -7.916   0.823  -2.284  0.00  0.00    +0.000 C 
ENDBRANCH  18  20
ENDBRANCH  17  18
ENDBRANCH  14  17
ENDBRANCH  13  14
ENDBRANCH   1  13
TORSDOF 9
ENDMDL
MODEL 9
REMARK VINA RESULT:      -2.5      1.036      1.338
REMARK  Name = orig_f12_ligand
REMARK  12 active torsions:
REMARK  status: ('A' for Active; 'I' for Inactive)
REMARK    1  A    between atoms: C_1  and  C_2
REMARK    2  A    between atoms: C_2  and  C_3
REMARK    3  A    between atoms: C_3  and  C_4
REMARK    4  A    between atoms: C_4  and  C_5
REMARK    5  A    between atoms: C_5  and  C_6
REMARK    6  A    between atoms: C_5  and  O_8
REMARK    7  A    between atoms: C_6  and  C_7
REMARK    8  A    between atoms: O_8  and  C_9
REMARK    9  A    between atoms: C_9  and  C_11
REMARK   10  A    between atoms: C_12  and  C_13
REMARK   11  A    between atoms: C_16  and  O_17
REMARK   12  A    between atoms: O_17  and  C_18
REMARK                            x       y       z     vdW  Elec       q    Type
REMARK                         _______ _______ _______ _____ _____    ______ ____
ROOT
ATOM      1  C   UNL     1      -6.007  -0.839  -4.189  0.00  0.00    +0.000 C 
ATOM      2  O   UNL     1      -7.124  -1.104  -4.576  0.00  0.00    +0.000 OA
ENDROOT
BRANCH   1   3
ATOM      3  C   UNL     1      -5.345   0.458  -4.386  0.00  0.00    +0.000 C 
ATOM      4  C   UNL     1      -4.229   0.735  -3.702  0.00  0.00    +0.000 C 
BRANCH   4   5
ATOM      5  C   UNL     1      -3.575   2.054  -3.755  0.00  0.00    +0.000 A 
ATOM      6  C   UNL     1      -2.523   2.382  -2.931  0.00  0.00    +0.000 A 
ATOM      7  C   UNL     1      -1.908   3.619  -3.032  0.00  0.00    +0.000 A 
ATOM      8  C   UNL     1      -2.352   4.531  -3.951  0.00  0.00    +0.000 A 
ATOM      9  C   UNL     1      -3.406   4.210  -4.785  0.00  0.00    +0.000 A 
ATOM     10  C   UNL     1      -4.025   2.971  -4.673  0.00  0.00    +0.000 A 
BRANCH   8  11
ATOM     11  O   UNL     1      -1.774   5.757  -4.107  0.00  0.00    +0.000 OA
ATOM     12  C   UNL     1      -1.338   6.485  -2.965  0.00  0.00    +0.000 C 
ENDBRANCH   8  11
ENDBRANCH   4   5
ENDBRANCH   1   3
BRANCH   1  13
ATOM     13  O   UNL     1      -5.228  -1.719  -3.579  0.00  0.00    +0.000 OA
BRANCH  13  14
ATOM     14  C   UNL     1      -5.742  -2.456  -2.496  0.00  0.00    +0.000 C 
BRANCH  14  15
ATOM     15  C   UNL     1      -5.277  -3.900  -2.593  0.00  0.00    +0.000 C 
ATOM     16  C   UNL     1      -6.387  -4.935  -2.589  0.00  0.00    +0.000 C 
ENDBRANCH  14  15
BRANCH  14  17
ATOM     17  C   UNL     1      -5.265  -1.819  -1.209  0.00  0.00    +0.000 C 
BRANCH  17  18
ATOM     18  C   UNL     1      -6.285  -0.947  -0.551  0.00  0.00    +0.000 C 
BRANCH  18  20
ATOM     19  C   UNL     1      -4.264   0.428  -0.046  0.00  0.00    +0.000 C 
ATOM     20  C   UNL     1      -5.754   0.434  -0.290  0.00  0.00    +0.000 C 
ENDBRANCH  18  20
ENDBRANCH  17  18
ENDBRANCH  14  17
ENDBRANCH  13  14
ENDBRANCH   1  13
TORSDOF 9
ENDMDL
