REMARK  Name = bg33_4_ligand
REMARK  12 active torsions:
REMARK  status: ('A' for Active; 'I' for Inactive)
REMARK    1  A    between atoms: C_1  and  C_2
REMARK    2  A    between atoms: C_2  and  C_3
REMARK    3  A    between atoms: C_3  and  C_4
REMARK    4  A    between atoms: C_4  and  C_5
REMARK    5  A    between atoms: C_5  and  C_6
REMARK    6  A    between atoms: C_5  and  O_8
REMARK    7  A    between atoms: C_6  and  C_7
REMARK    8  A    between atoms: O_8  and  C_9
REMARK    9  A    between atoms: C_9  and  C_11
REMARK   10  A    between atoms: C_12  and  C_13
REMARK   11  A    between atoms: C_16  and  O_17
REMARK   12  A    between atoms: O_17  and  C_18
REMARK                            x       y       z     vdW  Elec       q    Type
REMARK                         _______ _______ _______ _____ _____    ______ ____
ROOT
ATOM      1  C   UNL     1      -9.503  -2.102  -4.411  0.00  0.00    +0.000 C 
ATOM      2  O   UNL     1      -9.805  -0.915  -4.741  0.00  0.00    +0.000 OA
ENDROOT
BRANCH   1   3
ATOM      3  C   UNL     1      -8.646  -2.428  -3.260  0.00  0.00    +0.000 C 
ATOM      4  C   UNL     1      -8.219  -3.788  -3.101  0.00  0.00    +0.000 C 
BRANCH   4   5
ATOM      5  C   UNL     1      -7.422  -4.218  -1.880  0.00  0.00    +0.000 A 
ATOM      6  C   UNL     1      -6.554  -3.372  -1.223  0.00  0.00    +0.000 A 
ATOM      7  C   UNL     1      -5.818  -3.807  -0.068  0.00  0.00    +0.000 A 
ATOM      8  C   UNL     1      -5.961  -5.102   0.461  0.00  0.00    +0.000 A 
ATOM      9  C   UNL     1      -6.857  -5.930  -0.211  0.00  0.00    +0.000 A 
ATOM     10  C   UNL     1      -7.577  -5.500  -1.333  0.00  0.00    +0.000 A 
BRANCH   8  11
ATOM     11  O   UNL     1      -5.325  -5.556   1.599  0.00  0.00    +0.000 OA
ATOM     12  C   UNL     1      -4.488  -4.634   2.342  0.00  0.00    +0.000 C 
ENDBRANCH   8  11
ENDBRANCH   4   5
ENDBRANCH   1   3
BRANCH   1  13
ATOM     13  O   UNL     1     -10.128  -3.240  -5.091  0.00  0.00    +0.000 OA
BRANCH  13  14
ATOM     14  C   UNL     1     -10.765  -3.041  -6.308  0.00  0.00    +0.000 C 
BRANCH  14  15
ATOM     15  C   UNL     1     -12.236  -2.829  -5.847  0.00  0.00    +0.000 C 
ATOM     16  C   UNL     1     -13.109  -2.192  -6.977  0.00  0.00    +0.000 C 
ENDBRANCH  14  15
BRANCH  14  17
ATOM     17  C   UNL     1     -10.529  -4.322  -7.235  0.00  0.00    +0.000 C 
BRANCH  17  18
ATOM     18  C   UNL     1      -9.216  -4.979  -6.896  0.00  0.00    +0.000 C 
BRANCH  18  20
ATOM     19  C   UNL     1      -7.558  -6.768  -7.588  0.00  0.00    +0.000 C 
ATOM     20  C   UNL     1      -8.753  -5.944  -7.984  0.00  0.00    +0.000 C 
ENDBRANCH  18  20
ENDBRANCH  17  18
ENDBRANCH  14  17
ENDBRANCH  13  14
ENDBRANCH   1  13
TORSDOF 9
