MODEL 1
REMARK VINA RESULT:      -4.1      0.000      0.000
REMARK  Name = bg33_4_ligand
REMARK  12 active torsions:
REMARK  status: ('A' for Active; 'I' for Inactive)
REMARK    1  A    between atoms: C_1  and  C_2
REMARK    2  A    between atoms: C_2  and  C_3
REMARK    3  A    between atoms: C_3  and  C_4
REMARK    4  A    between atoms: C_4  and  C_5
REMARK    5  A    between atoms: C_5  and  C_6
REMARK    6  A    between atoms: C_5  and  O_8
REMARK    7  A    between atoms: C_6  and  C_7
REMARK    8  A    between atoms: O_8  and  C_9
REMARK    9  A    between atoms: C_9  and  C_11
REMARK   10  A    between atoms: C_12  and  C_13
REMARK   11  A    between atoms: C_16  and  O_17
REMARK   12  A    between atoms: O_17  and  C_18
REMARK                            x       y       z     vdW  Elec       q    Type
REMARK                         _______ _______ _______ _____ _____    ______ ____
ROOT
ATOM      1  C   UNL     1      -9.332  -4.199  -1.146  0.00  0.00    +0.000 C 
ATOM      2  O   UNL     1     -10.537  -4.400  -0.803  0.00  0.00    +0.000 OA
ENDROOT
BRANCH   1   3
ATOM      3  C   UNL     1      -8.280  -3.791  -0.201  0.00  0.00    +0.000 C 
ATOM      4  C   UNL     1      -7.481  -4.818   0.402  0.00  0.00    +0.000 C 
BRANCH   4   5
ATOM      5  C   UNL     1      -6.448  -4.479   1.466  0.00  0.00    +0.000 A 
ATOM      6  C   UNL     1      -6.761  -3.772   2.607  0.00  0.00    +0.000 A 
ATOM      7  C   UNL     1      -5.763  -3.472   3.596  0.00  0.00    +0.000 A 
ATOM      8  C   UNL     1      -4.431  -3.900   3.463  0.00  0.00    +0.000 A 
ATOM      9  C   UNL     1      -4.146  -4.628   2.310  0.00  0.00    +0.000 A 
ATOM     10  C   UNL     1      -5.123  -4.924   1.351  0.00  0.00    +0.000 A 
BRANCH   8  11
ATOM     11  O   UNL     1      -3.445  -3.691   4.406  0.00  0.00    +0.000 OA
ATOM     12  C   UNL     1      -3.255  -4.685   5.445  0.00  0.00    +0.000 C 
ENDBRANCH   8  11
ENDBRANCH   4   5
ENDBRANCH   1   3
BRANCH   1  13
ATOM     13  O   UNL     1      -8.889  -4.513  -2.507  0.00  0.00    +0.000 OA
BRANCH  13  14
ATOM     14  C   UNL     1      -7.937  -3.707  -3.116  0.00  0.00    +0.000 C 
BRANCH  14  15
ATOM     15  C   UNL     1      -8.754  -3.119  -4.302  0.00  0.00    +0.000 C 
ATOM     16  C   UNL     1      -8.830  -4.117  -5.503  0.00  0.00    +0.000 C 
ENDBRANCH  14  15
BRANCH  14  17
ATOM     17  C   UNL     1      -6.688  -4.610  -3.543  0.00  0.00    +0.000 C 
BRANCH  17  18
ATOM     18  C   UNL     1      -5.479  -4.256  -2.715  0.00  0.00    +0.000 C 
BRANCH  18  20
ATOM     19  C   UNL     1      -4.257  -2.326  -1.615  0.00  0.00    +0.000 C 
ATOM     20  C   UNL     1      -5.571  -2.851  -2.126  0.00  0.00    +0.000 C 
ENDBRANCH  18  20
ENDBRANCH  17  18
ENDBRANCH  14  17
ENDBRANCH  13  14
ENDBRANCH   1  13
TORSDOF 9
ENDMDL
MODEL 2
REMARK VINA RESULT:      -4.1      2.363      7.895
REMARK  Name = bg33_4_ligand
REMARK  12 active torsions:
REMARK  status: ('A' for Active; 'I' for Inactive)
REMARK    1  A    between atoms: C_1  and  C_2
REMARK    2  A    between atoms: C_2  and  C_3
REMARK    3  A    between atoms: C_3  and  C_4
REMARK    4  A    between atoms: C_4  and  C_5
REMARK    5  A    between atoms: C_5  and  C_6
REMARK    6  A    between atoms: C_5  and  O_8
REMARK    7  A    between atoms: C_6  and  C_7
REMARK    8  A    between atoms: O_8  and  C_9
REMARK    9  A    between atoms: C_9  and  C_11
REMARK   10  A    between atoms: C_12  and  C_13
REMARK   11  A    between atoms: C_16  and  O_17
REMARK   12  A    between atoms: O_17  and  C_18
REMARK                            x       y       z     vdW  Elec       q    Type
REMARK                         _______ _______ _______ _____ _____    ______ ____
ROOT
ATOM      1  C   UNL     1      -5.653  -2.870  -1.131  0.00  0.00    +0.000 C 
ATOM      2  O   UNL     1      -4.589  -2.184  -1.196  0.00  0.00    +0.000 OA
ENDROOT
BRANCH   1   3
ATOM      3  C   UNL     1      -6.706  -2.829  -2.158  0.00  0.00    +0.000 C 
ATOM      4  C   UNL     1      -6.849  -3.963  -3.024  0.00  0.00    +0.000 C 
BRANCH   4   5
ATOM      5  C   UNL     1      -7.843  -3.947  -4.174  0.00  0.00    +0.000 A 
ATOM      6  C   UNL     1      -7.812  -4.870  -5.197  0.00  0.00    +0.000 A 
ATOM      7  C   UNL     1      -8.769  -4.831  -6.268  0.00  0.00    +0.000 A 
ATOM      8  C   UNL     1      -9.793  -3.869  -6.316  0.00  0.00    +0.000 A 
ATOM      9  C   UNL     1      -9.812  -2.959  -5.261  0.00  0.00    +0.000 A 
ATOM     10  C   UNL     1      -8.881  -3.005  -4.216  0.00  0.00    +0.000 A 
BRANCH   8  11
ATOM     11  O   UNL     1     -10.773  -3.818  -7.287  0.00  0.00    +0.000 OA
ATOM     12  C   UNL     1     -11.435  -2.553  -7.540  0.00  0.00    +0.000 C 
ENDBRANCH   8  11
ENDBRANCH   4   5
ENDBRANCH   1   3
BRANCH   1  13
ATOM     13  O   UNL     1      -5.822  -3.873  -0.075  0.00  0.00    +0.000 OA
BRANCH  13  14
ATOM     14  C   UNL     1      -6.854  -3.730   0.842  0.00  0.00    +0.000 C 
BRANCH  14  15
ATOM     15  C   UNL     1      -6.076  -3.229   2.094  0.00  0.00    +0.000 C 
ATOM     16  C   UNL     1      -6.794  -3.638   3.421  0.00  0.00    +0.000 C 
ENDBRANCH  14  15
BRANCH  14  17
ATOM     17  C   UNL     1      -7.587  -5.139   1.026  0.00  0.00    +0.000 C 
BRANCH  17  18
ATOM     18  C   UNL     1      -8.533  -5.390  -0.120  0.00  0.00    +0.000 C 
BRANCH  18  20
ATOM     19  C   UNL     1     -10.592  -4.529  -1.323  0.00  0.00    +0.000 C 
ATOM     20  C   UNL     1      -9.482  -4.219  -0.355  0.00  0.00    +0.000 C 
ENDBRANCH  18  20
ENDBRANCH  17  18
ENDBRANCH  14  17
ENDBRANCH  13  14
ENDBRANCH   1  13
TORSDOF 9
ENDMDL
MODEL 3
REMARK VINA RESULT:      -4.0      4.458      7.281
REMARK  Name = bg33_4_ligand
REMARK  12 active torsions:
REMARK  status: ('A' for Active; 'I' for Inactive)
REMARK    1  A    between atoms: C_1  and  C_2
REMARK    2  A    between atoms: C_2  and  C_3
REMARK    3  A    between atoms: C_3  and  C_4
REMARK    4  A    between atoms: C_4  and  C_5
REMARK    5  A    between atoms: C_5  and  C_6
REMARK    6  A    between atoms: C_5  and  O_8
REMARK    7  A    between atoms: C_6  and  C_7
REMARK    8  A    between atoms: O_8  and  C_9
REMARK    9  A    between atoms: C_9  and  C_11
REMARK   10  A    between atoms: C_12  and  C_13
REMARK   11  A    between atoms: C_16  and  O_17
REMARK   12  A    between atoms: O_17  and  C_18
REMARK                            x       y       z     vdW  Elec       q    Type
REMARK                         _______ _______ _______ _____ _____    ______ ____
ROOT
ATOM      1  C   UNL     1      -5.051  -2.752  -1.445  0.00  0.00    +0.000 C 
ATOM      2  O   UNL     1      -6.127  -2.261  -1.903  0.00  0.00    +0.000 OA
ENDROOT
BRANCH   1   3
ATOM      3  C   UNL     1      -3.801  -2.823  -2.217  0.00  0.00    +0.000 C 
ATOM      4  C   UNL     1      -3.451  -4.076  -2.821  0.00  0.00    +0.000 C 
BRANCH   4   5
ATOM      5  C   UNL     1      -2.125  -4.251  -3.543  0.00  0.00    +0.000 A 
ATOM      6  C   UNL     1      -0.965  -4.612  -2.890  0.00  0.00    +0.000 A 
ATOM      7  C   UNL     1       0.273  -4.774  -3.601  0.00  0.00    +0.000 A 
ATOM      8  C   UNL     1       0.360  -4.597  -4.993  0.00  0.00    +0.000 A 
ATOM      9  C   UNL     1      -0.829  -4.251  -5.630  0.00  0.00    +0.000 A 
ATOM     10  C   UNL     1      -2.035  -4.099  -4.934  0.00  0.00    +0.000 A 
BRANCH   8  11
ATOM     11  O   UNL     1       1.506  -4.795  -5.736  0.00  0.00    +0.000 OA
ATOM     12  C   UNL     1       1.378  -5.041  -7.159  0.00  0.00    +0.000 C 
ENDBRANCH   8  11
ENDBRANCH   4   5
ENDBRANCH   1   3
BRANCH   1  13
ATOM     13  O   UNL     1      -4.962  -3.151  -0.037  0.00  0.00    +0.000 OA
BRANCH  13  14
ATOM     14  C   UNL     1      -5.623  -4.294   0.391  0.00  0.00    +0.000 C 
BRANCH  14  15
ATOM     15  C   UNL     1      -6.732  -3.680   1.293  0.00  0.00    +0.000 C 
ATOM     16  C   UNL     1      -6.150  -3.148   2.643  0.00  0.00    +0.000 C 
ENDBRANCH  14  15
BRANCH  14  17
ATOM     17  C   UNL     1      -4.585  -5.241   1.153  0.00  0.00    +0.000 C 
BRANCH  17  18
ATOM     18  C   UNL     1      -4.005  -6.255   0.201  0.00  0.00    +0.000 C 
BRANCH  18  20
ATOM     19  C   UNL     1      -1.923  -4.894   0.696  0.00  0.00    +0.000 C 
ATOM     20  C   UNL     1      -2.484  -6.163   0.112  0.00  0.00    +0.000 C 
ENDBRANCH  18  20
ENDBRANCH  17  18
ENDBRANCH  14  17
ENDBRANCH  13  14
ENDBRANCH   1  13
TORSDOF 9
ENDMDL
MODEL 4
REMARK VINA RESULT:      -4.0      2.777      8.038
REMARK  Name = bg33_4_ligand
REMARK  12 active torsions:
REMARK  status: ('A' for Active; 'I' for Inactive)
REMARK    1  A    between atoms: C_1  and  C_2
REMARK    2  A    between atoms: C_2  and  C_3
REMARK    3  A    between atoms: C_3  and  C_4
REMARK    4  A    between atoms: C_4  and  C_5
REMARK    5  A    between atoms: C_5  and  C_6
REMARK    6  A    between atoms: C_5  and  O_8
REMARK    7  A    between atoms: C_6  and  C_7
REMARK    8  A    between atoms: O_8  and  C_9
REMARK    9  A    between atoms: C_9  and  C_11
REMARK   10  A    between atoms: C_12  and  C_13
REMARK   11  A    between atoms: C_16  and  O_17
REMARK   12  A    between atoms: O_17  and  C_18
REMARK                            x       y       z     vdW  Elec       q    Type
REMARK                         _______ _______ _______ _____ _____    ______ ____
ROOT
ATOM      1  C   UNL     1      -6.795  -4.736  -2.872  0.00  0.00    +0.000 C 
ATOM      2  O   UNL     1      -6.954  -5.994  -2.857  0.00  0.00    +0.000 OA
ENDROOT
BRANCH   1   3
ATOM      3  C   UNL     1      -7.583  -3.832  -3.726  0.00  0.00    +0.000 C 
ATOM      4  C   UNL     1      -9.000  -3.771  -3.516  0.00  0.00    +0.000 C 
BRANCH   4   5
ATOM      5  C   UNL     1      -9.889  -2.941  -4.428  0.00  0.00    +0.000 A 
ATOM      6  C   UNL     1     -11.230  -2.740  -4.178  0.00  0.00    +0.000 A 
ATOM      7  C   UNL     1     -12.043  -1.947  -5.057  0.00  0.00    +0.000 A 
ATOM      8  C   UNL     1     -11.512  -1.320  -6.199  0.00  0.00    +0.000 A 
ATOM      9  C   UNL     1     -10.152  -1.525  -6.418  0.00  0.00    +0.000 A 
ATOM     10  C   UNL     1      -9.361  -2.294  -5.555  0.00  0.00    +0.000 A 
BRANCH   8  11
ATOM     11  O   UNL     1     -12.230  -0.501  -7.046  0.00  0.00    +0.000 OA
ATOM     12  C   UNL     1     -11.859  -0.454  -8.447  0.00  0.00    +0.000 C 
ENDBRANCH   8  11
ENDBRANCH   4   5
ENDBRANCH   1   3
BRANCH   1  13
ATOM     13  O   UNL     1      -5.897  -4.092  -1.909  0.00  0.00    +0.000 OA
BRANCH  13  14
ATOM     14  C   UNL     1      -5.930  -2.712  -1.763  0.00  0.00    +0.000 C 
BRANCH  14  15
ATOM     15  C   UNL     1      -4.417  -2.391  -1.596  0.00  0.00    +0.000 C 
ATOM     16  C   UNL     1      -3.560  -3.039  -2.732  0.00  0.00    +0.000 C 
ENDBRANCH  14  15
BRANCH  14  17
ATOM     17  C   UNL     1      -6.839  -2.344  -0.500  0.00  0.00    +0.000 C 
BRANCH  17  18
ATOM     18  C   UNL     1      -6.814  -3.464   0.507  0.00  0.00    +0.000 C 
BRANCH  18  20
ATOM     19  C   UNL     1      -6.633  -3.454   3.036  0.00  0.00    +0.000 C 
ATOM     20  C   UNL     1      -5.964  -3.125   1.729  0.00  0.00    +0.000 C 
ENDBRANCH  18  20
ENDBRANCH  17  18
ENDBRANCH  14  17
ENDBRANCH  13  14
ENDBRANCH   1  13
TORSDOF 9
ENDMDL
MODEL 5
REMARK VINA RESULT:      -4.0      2.349      7.423
REMARK  Name = bg33_4_ligand
REMARK  12 active torsions:
REMARK  status: ('A' for Active; 'I' for Inactive)
REMARK    1  A    between atoms: C_1  and  C_2
REMARK    2  A    between atoms: C_2  and  C_3
REMARK    3  A    between atoms: C_3  and  C_4
REMARK    4  A    between atoms: C_4  and  C_5
REMARK    5  A    between atoms: C_5  and  C_6
REMARK    6  A    between atoms: C_5  and  O_8
REMARK    7  A    between atoms: C_6  and  C_7
REMARK    8  A    between atoms: O_8  and  C_9
REMARK    9  A    between atoms: C_9  and  C_11
REMARK   10  A    between atoms: C_12  and  C_13
REMARK   11  A    between atoms: C_16  and  O_17
REMARK   12  A    between atoms: O_17  and  C_18
REMARK                            x       y       z     vdW  Elec       q    Type
REMARK                         _______ _______ _______ _____ _____    ______ ____
ROOT
ATOM      1  C   UNL     1      -8.389  -5.018   0.204  0.00  0.00    +0.000 C 
ATOM      2  O   UNL     1      -8.558  -6.253   0.442  0.00  0.00    +0.000 OA
ENDROOT
BRANCH   1   3
ATOM      3  C   UNL     1      -9.133  -4.286  -0.833  0.00  0.00    +0.000 C 
ATOM      4  C   UNL     1      -8.786  -4.522  -2.205  0.00  0.00    +0.000 C 
BRANCH   4   5
ATOM      5  C   UNL     1      -9.438  -3.723  -3.322  0.00  0.00    +0.000 A 
ATOM      6  C   UNL     1      -8.707  -3.057  -4.283  0.00  0.00    +0.000 A 
ATOM      7  C   UNL     1      -9.352  -2.314  -5.330  0.00  0.00    +0.000 A 
ATOM      8  C   UNL     1     -10.753  -2.248  -5.441  0.00  0.00    +0.000 A 
ATOM      9  C   UNL     1     -11.466  -2.944  -4.469  0.00  0.00    +0.000 A 
ATOM     10  C   UNL     1     -10.833  -3.672  -3.453  0.00  0.00    +0.000 A 
BRANCH   8  11
ATOM     11  O   UNL     1     -11.426  -1.599  -6.457  0.00  0.00    +0.000 OA
ATOM     12  C   UNL     1     -12.543  -0.740  -6.112  0.00  0.00    +0.000 C 
ENDBRANCH   8  11
ENDBRANCH   4   5
ENDBRANCH   1   3
BRANCH   1  13
ATOM     13  O   UNL     1      -7.529  -4.210   1.072  0.00  0.00    +0.000 OA
BRANCH  13  14
ATOM     14  C   UNL     1      -6.218  -3.959   0.690  0.00  0.00    +0.000 C 
BRANCH  14  15
ATOM     15  C   UNL     1      -5.468  -4.155   2.040  0.00  0.00    +0.000 C 
ATOM     16  C   UNL     1      -6.176  -3.395   3.209  0.00  0.00    +0.000 C 
ENDBRANCH  14  15
BRANCH  14  17
ATOM     17  C   UNL     1      -6.126  -2.485   0.078  0.00  0.00    +0.000 C 
BRANCH  17  18
ATOM     18  C   UNL     1      -5.909  -2.549  -1.411  0.00  0.00    +0.000 C 
BRANCH  18  20
ATOM     19  C   UNL     1      -5.173  -4.399  -2.981  0.00  0.00    +0.000 C 
ATOM     20  C   UNL     1      -4.817  -3.544  -1.795  0.00  0.00    +0.000 C 
ENDBRANCH  18  20
ENDBRANCH  17  18
ENDBRANCH  14  17
ENDBRANCH  13  14
ENDBRANCH   1  13
TORSDOF 9
ENDMDL
MODEL 6
REMARK VINA RESULT:      -4.0      3.670      7.602
REMARK  Name = bg33_4_ligand
REMARK  12 active torsions:
REMARK  status: ('A' for Active; 'I' for Inactive)
REMARK    1  A    between atoms: C_1  and  C_2
REMARK    2  A    between atoms: C_2  and  C_3
REMARK    3  A    between atoms: C_3  and  C_4
REMARK    4  A    between atoms: C_4  and  C_5
REMARK    5  A    between atoms: C_5  and  C_6
REMARK    6  A    between atoms: C_5  and  O_8
REMARK    7  A    between atoms: C_6  and  C_7
REMARK    8  A    between atoms: O_8  and  C_9
REMARK    9  A    between atoms: C_9  and  C_11
REMARK   10  A    between atoms: C_12  and  C_13
REMARK   11  A    between atoms: C_16  and  O_17
REMARK   12  A    between atoms: O_17  and  C_18
REMARK                            x       y       z     vdW  Elec       q    Type
REMARK                         _______ _______ _______ _____ _____    ______ ____
ROOT
ATOM      1  C   UNL     1      -4.249  -6.196  -2.980  0.00  0.00    +0.000 C 
ATOM      2  O   UNL     1      -4.310  -7.409  -2.612  0.00  0.00    +0.000 OA
ENDROOT
BRANCH   1   3
ATOM      3  C   UNL     1      -5.225  -5.578  -3.891  0.00  0.00    +0.000 C 
ATOM      4  C   UNL     1      -6.448  -5.080  -3.331  0.00  0.00    +0.000 C 
BRANCH   4   5
ATOM      5  C   UNL     1      -7.547  -4.526  -4.225  0.00  0.00    +0.000 A 
ATOM      6  C   UNL     1      -8.267  -3.395  -3.903  0.00  0.00    +0.000 A 
ATOM      7  C   UNL     1      -9.296  -2.893  -4.771  0.00  0.00    +0.000 A 
ATOM      8  C   UNL     1      -9.605  -3.512  -5.995  0.00  0.00    +0.000 A 
ATOM      9  C   UNL     1      -8.850  -4.642  -6.304  0.00  0.00    +0.000 A 
ATOM     10  C   UNL     1      -7.844  -5.124  -5.458  0.00  0.00    +0.000 A 
BRANCH   8  11
ATOM     11  O   UNL     1     -10.541  -3.043  -6.894  0.00  0.00    +0.000 OA
ATOM     12  C   UNL     1     -10.607  -1.617  -7.149  0.00  0.00    +0.000 C 
ENDBRANCH   8  11
ENDBRANCH   4   5
ENDBRANCH   1   3
BRANCH   1  13
ATOM     13  O   UNL     1      -3.261  -5.292  -2.385  0.00  0.00    +0.000 OA
BRANCH  13  14
ATOM     14  C   UNL     1      -2.912  -4.127  -3.055  0.00  0.00    +0.000 C 
BRANCH  14  15
ATOM     15  C   UNL     1      -1.482  -4.485  -3.555  0.00  0.00    +0.000 C 
ATOM     16  C   UNL     1      -1.341  -4.275  -5.098  0.00  0.00    +0.000 C 
ENDBRANCH  14  15
BRANCH  14  17
ATOM     17  C   UNL     1      -2.979  -2.899  -2.034  0.00  0.00    +0.000 C 
BRANCH  17  18
ATOM     18  C   UNL     1      -4.378  -2.342  -1.976  0.00  0.00    +0.000 C 
BRANCH  18  20
ATOM     19  C   UNL     1      -6.592  -2.420  -0.744  0.00  0.00    +0.000 C 
ATOM     20  C   UNL     1      -5.142  -2.820  -0.744  0.00  0.00    +0.000 C 
ENDBRANCH  18  20
ENDBRANCH  17  18
ENDBRANCH  14  17
ENDBRANCH  13  14
ENDBRANCH   1  13
TORSDOF 9
ENDMDL
MODEL 7
REMARK VINA RESULT:      -4.0      4.364      7.628
REMARK  Name = bg33_4_ligand
REMARK  12 active torsions:
REMARK  status: ('A' for Active; 'I' for Inactive)
REMARK    1  A    between atoms: C_1  and  C_2
REMARK    2  A    between atoms: C_2  and  C_3
REMARK    3  A    between atoms: C_3  and  C_4
REMARK    4  A    between atoms: C_4  and  C_5
REMARK    5  A    between atoms: C_5  and  C_6
REMARK    6  A    between atoms: C_5  and  O_8
REMARK    7  A    between atoms: C_6  and  C_7
REMARK    8  A    between atoms: O_8  and  C_9
REMARK    9  A    between atoms: C_9  and  C_11
REMARK   10  A    between atoms: C_12  and  C_13
REMARK   11  A    between atoms: C_16  and  O_17
REMARK   12  A    between atoms: O_17  and  C_18
REMARK                            x       y       z     vdW  Elec       q    Type
REMARK                         _______ _______ _______ _____ _____    ______ ____
ROOT
ATOM      1  C   UNL     1      -0.314  -4.251  -1.344  0.00  0.00    +0.000 C 
ATOM      2  O   UNL     1       0.144  -3.884  -0.219  0.00  0.00    +0.000 OA
ENDROOT
BRANCH   1   3
ATOM      3  C   UNL     1      -1.750  -4.431  -1.612  0.00  0.00    +0.000 C 
ATOM      4  C   UNL     1      -2.524  -3.271  -1.945  0.00  0.00    +0.000 C 
BRANCH   4   5
ATOM      5  C   UNL     1      -4.030  -3.364  -2.130  0.00  0.00    +0.000 A 
ATOM      6  C   UNL     1      -4.910  -2.500  -1.514  0.00  0.00    +0.000 A 
ATOM      7  C   UNL     1      -6.329  -2.612  -1.713  0.00  0.00    +0.000 A 
ATOM      8  C   UNL     1      -6.888  -3.587  -2.558  0.00  0.00    +0.000 A 
ATOM      9  C   UNL     1      -5.976  -4.435  -3.182  0.00  0.00    +0.000 A 
ATOM     10  C   UNL     1      -4.593  -4.319  -2.990  0.00  0.00    +0.000 A 
BRANCH   8  11
ATOM     11  O   UNL     1      -8.236  -3.705  -2.832  0.00  0.00    +0.000 OA
ATOM     12  C   UNL     1      -8.731  -3.216  -4.104  0.00  0.00    +0.000 C 
ENDBRANCH   8  11
ENDBRANCH   4   5
ENDBRANCH   1   3
BRANCH   1  13
ATOM     13  O   UNL     1       0.577  -4.376  -2.500  0.00  0.00    +0.000 OA
BRANCH  13  14
ATOM     14  C   UNL     1       0.200  -5.178  -3.568  0.00  0.00    +0.000 C 
BRANCH  14  15
ATOM     15  C   UNL     1       1.276  -6.300  -3.498  0.00  0.00    +0.000 C 
ATOM     16  C   UNL     1       0.629  -7.723  -3.537  0.00  0.00    +0.000 C 
ENDBRANCH  14  15
BRANCH  14  17
ATOM     17  C   UNL     1       0.225  -4.306  -4.908  0.00  0.00    +0.000 C 
BRANCH  17  18
ATOM     18  C   UNL     1      -1.146  -4.264  -5.531  0.00  0.00    +0.000 C 
BRANCH  18  20
ATOM     19  C   UNL     1      -2.720  -6.251  -5.457  0.00  0.00    +0.000 C 
ATOM     20  C   UNL     1      -1.547  -5.604  -6.142  0.00  0.00    +0.000 C 
ENDBRANCH  18  20
ENDBRANCH  17  18
ENDBRANCH  14  17
ENDBRANCH  13  14
ENDBRANCH   1  13
TORSDOF 9
ENDMDL
MODEL 8
REMARK VINA RESULT:      -3.9      3.724      6.065
REMARK  Name = bg33_4_ligand
REMARK  12 active torsions:
REMARK  status: ('A' for Active; 'I' for Inactive)
REMARK    1  A    between atoms: C_1  and  C_2
REMARK    2  A    between atoms: C_2  and  C_3
REMARK    3  A    between atoms: C_3  and  C_4
REMARK    4  A    between atoms: C_4  and  C_5
REMARK    5  A    between atoms: C_5  and  C_6
REMARK    6  A    between atoms: C_5  and  O_8
REMARK    7  A    between atoms: C_6  and  C_7
REMARK    8  A    between atoms: O_8  and  C_9
REMARK    9  A    between atoms: C_9  and  C_11
REMARK   10  A    between atoms: C_12  and  C_13
REMARK   11  A    between atoms: C_16  and  O_17
REMARK   12  A    between atoms: O_17  and  C_18
REMARK                            x       y       z     vdW  Elec       q    Type
REMARK                         _______ _______ _______ _____ _____    ______ ____
ROOT
ATOM      1  C   UNL     1      -6.070  -2.408  -1.047  0.00  0.00    +0.000 C 
ATOM      2  O   UNL     1      -5.951  -2.088   0.175  0.00  0.00    +0.000 OA
ENDROOT
BRANCH   1   3
ATOM      3  C   UNL     1      -4.924  -2.719  -1.917  0.00  0.00    +0.000 C 
ATOM      4  C   UNL     1      -3.992  -3.715  -1.474  0.00  0.00    +0.000 C 
BRANCH   4   5
ATOM      5  C   UNL     1      -2.731  -4.012  -2.268  0.00  0.00    +0.000 A 
ATOM      6  C   UNL     1      -1.528  -4.316  -1.667  0.00  0.00    +0.000 A 
ATOM      7  C   UNL     1      -0.353  -4.596  -2.446  0.00  0.00    +0.000 A 
ATOM      8  C   UNL     1      -0.376  -4.597  -3.852  0.00  0.00    +0.000 A 
ATOM      9  C   UNL     1      -1.607  -4.305  -4.434  0.00  0.00    +0.000 A 
ATOM     10  C   UNL     1      -2.751  -4.038  -3.670  0.00  0.00    +0.000 A 
BRANCH   8  11
ATOM     11  O   UNL     1       0.704  -4.914  -4.651  0.00  0.00    +0.000 OA
ATOM     12  C   UNL     1       0.595  -4.707  -6.082  0.00  0.00    +0.000 C 
ENDBRANCH   8  11
ENDBRANCH   4   5
ENDBRANCH   1   3
BRANCH   1  13
ATOM     13  O   UNL     1      -7.397  -2.631  -1.627  0.00  0.00    +0.000 OA
BRANCH  13  14
ATOM     14  C   UNL     1      -7.611  -3.739  -2.435  0.00  0.00    +0.000 C 
BRANCH  14  15
ATOM     15  C   UNL     1      -8.377  -3.098  -3.628  0.00  0.00    +0.000 C 
ATOM     16  C   UNL     1      -8.507  -4.090  -4.830  0.00  0.00    +0.000 C 
ENDBRANCH  14  15
BRANCH  14  17
ATOM     17  C   UNL     1      -8.440  -4.831  -1.613  0.00  0.00    +0.000 C 
BRANCH  17  18
ATOM     18  C   UNL     1      -9.208  -4.173  -0.496  0.00  0.00    +0.000 C 
BRANCH  18  20
ATOM     19  C   UNL     1     -11.112  -4.987  -1.959  0.00  0.00    +0.000 C 
ATOM     20  C   UNL     1     -10.718  -4.265  -0.699  0.00  0.00    +0.000 C 
ENDBRANCH  18  20
ENDBRANCH  17  18
ENDBRANCH  14  17
ENDBRANCH  13  14
ENDBRANCH   1  13
TORSDOF 9
ENDMDL
MODEL 9
REMARK VINA RESULT:      -3.9      3.191      5.098
REMARK  Name = bg33_4_ligand
REMARK  12 active torsions:
REMARK  status: ('A' for Active; 'I' for Inactive)
REMARK    1  A    between atoms: C_1  and  C_2
REMARK    2  A    between atoms: C_2  and  C_3
REMARK    3  A    between atoms: C_3  and  C_4
REMARK    4  A    between atoms: C_4  and  C_5
REMARK    5  A    between atoms: C_5  and  C_6
REMARK    6  A    between atoms: C_5  and  O_8
REMARK    7  A    between atoms: C_6  and  C_7
REMARK    8  A    between atoms: O_8  and  C_9
REMARK    9  A    between atoms: C_9  and  C_11
REMARK   10  A    between atoms: C_12  and  C_13
REMARK   11  A    between atoms: C_16  and  O_17
REMARK   12  A    between atoms: O_17  and  C_18
REMARK                            x       y       z     vdW  Elec       q    Type
REMARK                         _______ _______ _______ _____ _____    ______ ____
ROOT
ATOM      1  C   UNL     1      -6.710  -4.658  -3.640  0.00  0.00    +0.000 C 
ATOM      2  O   UNL     1      -7.130  -5.070  -4.764  0.00  0.00    +0.000 OA
ENDROOT
BRANCH   1   3
ATOM      3  C   UNL     1      -5.342  -4.897  -3.151  0.00  0.00    +0.000 C 
ATOM      4  C   UNL     1      -4.499  -3.759  -2.925  0.00  0.00    +0.000 C 
BRANCH   4   5
ATOM      5  C   UNL     1      -3.043  -3.935  -2.523  0.00  0.00    +0.000 A 
ATOM      6  C   UNL     1      -2.585  -3.665  -1.251  0.00  0.00    +0.000 A 
ATOM      7  C   UNL     1      -1.204  -3.845  -0.900  0.00  0.00    +0.000 A 
ATOM      8  C   UNL     1      -0.258  -4.325  -1.824  0.00  0.00    +0.000 A 
ATOM      9  C   UNL     1      -0.751  -4.607  -3.096  0.00  0.00    +0.000 A 
ATOM     10  C   UNL     1      -2.100  -4.435  -3.432  0.00  0.00    +0.000 A 
BRANCH   8  11
ATOM     11  O   UNL     1       1.067  -4.572  -1.528  0.00  0.00    +0.000 OA
ATOM     12  C   UNL     1       2.075  -4.223  -2.511  0.00  0.00    +0.000 C 
ENDBRANCH   8  11
ENDBRANCH   4   5
ENDBRANCH   1   3
BRANCH   1  13
ATOM     13  O   UNL     1      -7.543  -3.777  -2.816  0.00  0.00    +0.000 OA
BRANCH  13  14
ATOM     14  C   UNL     1      -8.314  -4.323  -1.799  0.00  0.00    +0.000 C 
BRANCH  14  15
ATOM     15  C   UNL     1      -9.740  -4.221  -2.414  0.00  0.00    +0.000 C 
ATOM     16  C   UNL     1     -10.849  -4.294  -1.314  0.00  0.00    +0.000 C 
ENDBRANCH  14  15
BRANCH  14  17
ATOM     17  C   UNL     1      -8.094  -3.470  -0.465  0.00  0.00    +0.000 C 
BRANCH  17  18
ATOM     18  C   UNL     1      -7.122  -2.347  -0.715  0.00  0.00    +0.000 C 
BRANCH  18  20
ATOM     19  C   UNL     1      -5.706  -3.790   0.815  0.00  0.00    +0.000 C 
ATOM     20  C   UNL     1      -5.887  -2.440   0.177  0.00  0.00    +0.000 C 
ENDBRANCH  18  20
ENDBRANCH  17  18
ENDBRANCH  14  17
ENDBRANCH  13  14
ENDBRANCH   1  13
TORSDOF 9
ENDMDL
