REMARK  Name = ox2_esm1_f8_ligand
REMARK  5 active torsions:
REMARK  status: ('A' for Active; 'I' for Inactive)
REMARK    1  A    between atoms: C_1  and  O_2
REMARK    2  A    between atoms: O_2  and  C_3
REMARK    3  A    between atoms: C_6  and  C_7
REMARK    4  A    between atoms: C_7  and  C_9
REMARK    5  A    between atoms: C_15  and  O_16
REMARK                            x       y       z     vdW  Elec       q    Type
REMARK                         _______ _______ _______ _____ _____    ______ ____
ROOT
ATOM      1  C   UNL     1      -1.542   0.902   4.282  0.00  0.00    +0.000 A 
ATOM      2  C   UNL     1      -2.262   2.094   4.258  0.00  0.00    +0.000 A 
ATOM      3  C   UNL     1      -3.634   2.083   4.435  0.00  0.00    +0.000 A 
ATOM      4  C   UNL     1      -4.304   0.887   4.622  0.00  0.00    +0.000 A 
ATOM      5  C   UNL     1      -3.586  -0.317   4.650  0.00  0.00    +0.000 A 
ATOM      6  C   UNL     1      -2.202  -0.291   4.481  0.00  0.00    +0.000 A 
ENDROOT
BRANCH   1   8
ATOM      7  C   UNL     1       0.539   2.091   3.906  0.00  0.00    +0.000 C 
ATOM      8  O   UNL     1      -0.188   0.860   4.121  0.00  0.00    +0.000 OA
ENDBRANCH   1   8
BRANCH   4   9
ATOM      9  C   UNL     1      -5.788   0.858   4.804  0.00  0.00    +0.000 C 
ATOM     10  O   UNL     1      -6.321  -0.147   5.224  0.00  0.00    +0.000 OA
BRANCH   9  11
ATOM     11  C   UNL     1      -6.622   2.038   4.494  0.00  0.00    +0.000 A 
ATOM     12  C   UNL     1      -7.525   2.513   5.440  0.00  0.00    +0.000 A 
ATOM     13  C   UNL     1      -8.303   3.630   5.149  0.00  0.00    +0.000 A 
ATOM     14  C   UNL     1      -8.218   4.258   3.914  0.00  0.00    +0.000 A 
ATOM     15  C   UNL     1      -7.346   3.753   2.962  0.00  0.00    +0.000 A 
ATOM     16  C   UNL     1      -6.546   2.647   3.251  0.00  0.00    +0.000 A 
ENDBRANCH   9  11
ENDBRANCH   4   9
BRANCH   5  17
ATOM     17  O   UNL     1      -4.257  -1.493   4.845  0.00  0.00    +0.000 OA
ATOM     18  H   UNL     1      -3.760  -2.349   4.867  0.00  0.00    +0.000 HD
ENDBRANCH   5  17
TORSDOF 4
