MODEL 1
REMARK VINA RESULT:      -4.9      0.000      0.000
REMARK  Name = ox2_esm1_f8_ligand
REMARK  5 active torsions:
REMARK  status: ('A' for Active; 'I' for Inactive)
REMARK    1  A    between atoms: C_1  and  O_2
REMARK    2  A    between atoms: O_2  and  C_3
REMARK    3  A    between atoms: C_6  and  C_7
REMARK    4  A    between atoms: C_7  and  C_9
REMARK    5  A    between atoms: C_15  and  O_16
REMARK                            x       y       z     vdW  Elec       q    Type
REMARK                         _______ _______ _______ _____ _____    ______ ____
ROOT
ATOM      1  C   UNL     1      -5.495  -6.406  -5.321  0.00  0.00    +0.000 A 
ATOM      2  C   UNL     1      -5.412  -5.031  -5.115  0.00  0.00    +0.000 A 
ATOM      3  C   UNL     1      -6.554  -4.294  -4.863  0.00  0.00    +0.000 A 
ATOM      4  C   UNL     1      -7.792  -4.912  -4.830  0.00  0.00    +0.000 A 
ATOM      5  C   UNL     1      -7.884  -6.296  -5.035  0.00  0.00    +0.000 A 
ATOM      6  C   UNL     1      -6.723  -7.030  -5.277  0.00  0.00    +0.000 A 
ENDROOT
BRANCH   1   8
ATOM      7  C   UNL     1      -4.435  -8.587  -5.236  0.00  0.00    +0.000 C 
ATOM      8  O   UNL     1      -4.398  -7.179  -5.565  0.00  0.00    +0.000 OA
ENDBRANCH   1   8
BRANCH   4   9
ATOM      9  C   UNL     1      -9.037  -4.127  -4.570  0.00  0.00    +0.000 C 
ATOM     10  O   UNL     1      -9.902  -4.077  -5.418  0.00  0.00    +0.000 OA
BRANCH   9  11
ATOM     11  C   UNL     1      -9.243  -3.416  -3.290  0.00  0.00    +0.000 A 
ATOM     12  C   UNL     1      -9.258  -2.025  -3.268  0.00  0.00    +0.000 A 
ATOM     13  C   UNL     1      -9.461  -1.359  -2.062  0.00  0.00    +0.000 A 
ATOM     14  C   UNL     1      -9.613  -2.061  -0.875  0.00  0.00    +0.000 A 
ATOM     15  C   UNL     1      -9.555  -3.445  -0.900  0.00  0.00    +0.000 A 
ATOM     16  C   UNL     1      -9.373  -4.124  -2.106  0.00  0.00    +0.000 A 
ENDBRANCH   9  11
ENDBRANCH   4   9
BRANCH   5  17
ATOM     17  O   UNL     1      -9.111  -6.900  -4.991  0.00  0.00    +0.000 OA
ATOM     18  H   UNL     1      -9.901  -6.445  -5.378  0.00  0.00    +0.000 HD
ENDBRANCH   5  17
TORSDOF 4
ENDMDL
MODEL 2
REMARK VINA RESULT:      -4.7     11.246     13.416
REMARK  Name = ox2_esm1_f8_ligand
REMARK  5 active torsions:
REMARK  status: ('A' for Active; 'I' for Inactive)
REMARK    1  A    between atoms: C_1  and  O_2
REMARK    2  A    between atoms: O_2  and  C_3
REMARK    3  A    between atoms: C_6  and  C_7
REMARK    4  A    between atoms: C_7  and  C_9
REMARK    5  A    between atoms: C_15  and  O_16
REMARK                            x       y       z     vdW  Elec       q    Type
REMARK                         _______ _______ _______ _____ _____    ______ ____
ROOT
ATOM      1  C   UNL     1      -5.097   1.753   5.007  0.00  0.00    +0.000 A 
ATOM      2  C   UNL     1      -4.390   2.852   4.527  0.00  0.00    +0.000 A 
ATOM      3  C   UNL     1      -3.074   2.711   4.122  0.00  0.00    +0.000 A 
ATOM      4  C   UNL     1      -2.446   1.481   4.207  0.00  0.00    +0.000 A 
ATOM      5  C   UNL     1      -3.153   0.369   4.687  0.00  0.00    +0.000 A 
ATOM      6  C   UNL     1      -4.481   0.522   5.081  0.00  0.00    +0.000 A 
ENDROOT
BRANCH   1   8
ATOM      7  C   UNL     1      -7.248   0.672   5.311  0.00  0.00    +0.000 C 
ATOM      8  O   UNL     1      -6.398   1.837   5.410  0.00  0.00    +0.000 OA
ENDBRANCH   1   8
BRANCH   4   9
ATOM      9  C   UNL     1      -1.021   1.315   3.783  0.00  0.00    +0.000 C 
ATOM     10  O   UNL     1      -0.770   0.815   2.708  0.00  0.00    +0.000 OA
BRANCH   9  11
ATOM     11  C   UNL     1       0.092   1.761   4.647  0.00  0.00    +0.000 A 
ATOM     12  C   UNL     1       0.559   0.927   5.658  0.00  0.00    +0.000 A 
ATOM     13  C   UNL     1       1.613   1.346   6.464  0.00  0.00    +0.000 A 
ATOM     14  C   UNL     1       2.185   2.600   6.298  0.00  0.00    +0.000 A 
ATOM     15  C   UNL     1       1.687   3.441   5.315  0.00  0.00    +0.000 A 
ATOM     16  C   UNL     1       0.644   3.023   4.488  0.00  0.00    +0.000 A 
ENDBRANCH   9  11
ENDBRANCH   4   9
BRANCH   5  17
ATOM     17  O   UNL     1      -2.525  -0.845   4.757  0.00  0.00    +0.000 OA
ATOM     18  H   UNL     1      -2.316  -1.342   3.927  0.00  0.00    +0.000 HD
ENDBRANCH   5  17
TORSDOF 4
ENDMDL
MODEL 3
REMARK VINA RESULT:      -4.6     10.653     13.178
REMARK  Name = ox2_esm1_f8_ligand
REMARK  5 active torsions:
REMARK  status: ('A' for Active; 'I' for Inactive)
REMARK    1  A    between atoms: C_1  and  O_2
REMARK    2  A    between atoms: O_2  and  C_3
REMARK    3  A    between atoms: C_6  and  C_7
REMARK    4  A    between atoms: C_7  and  C_9
REMARK    5  A    between atoms: C_15  and  O_16
REMARK                            x       y       z     vdW  Elec       q    Type
REMARK                         _______ _______ _______ _____ _____    ______ ____
ROOT
ATOM      1  C   UNL     1      -8.387   5.854   4.976  0.00  0.00    +0.000 A 
ATOM      2  C   UNL     1      -7.344   5.608   5.865  0.00  0.00    +0.000 A 
ATOM      3  C   UNL     1      -6.319   4.747   5.516  0.00  0.00    +0.000 A 
ATOM      4  C   UNL     1      -6.331   4.111   4.287  0.00  0.00    +0.000 A 
ATOM      5  C   UNL     1      -7.376   4.355   3.386  0.00  0.00    +0.000 A 
ATOM      6  C   UNL     1      -8.397   5.234   3.746  0.00  0.00    +0.000 A 
ENDROOT
BRANCH   1   8
ATOM      7  C   UNL     1      -9.885   7.624   4.259  0.00  0.00    +0.000 C 
ATOM      8  O   UNL     1      -9.416   6.701   5.269  0.00  0.00    +0.000 OA
ENDBRANCH   1   8
BRANCH   4   9
ATOM      9  C   UNL     1      -5.236   3.169   3.900  0.00  0.00    +0.000 C 
ATOM     10  O   UNL     1      -4.355   3.546   3.157  0.00  0.00    +0.000 OA
BRANCH   9  11
ATOM     11  C   UNL     1      -5.197   1.784   4.416  0.00  0.00    +0.000 A 
ATOM     12  C   UNL     1      -4.002   1.262   4.902  0.00  0.00    +0.000 A 
ATOM     13  C   UNL     1      -3.970  -0.039   5.396  0.00  0.00    +0.000 A 
ATOM     14  C   UNL     1      -5.105  -0.838   5.380  0.00  0.00    +0.000 A 
ATOM     15  C   UNL     1      -6.281  -0.324   4.856  0.00  0.00    +0.000 A 
ATOM     16  C   UNL     1      -6.330   0.986   4.378  0.00  0.00    +0.000 A 
ENDBRANCH   9  11
ENDBRANCH   4   9
BRANCH   5  17
ATOM     17  O   UNL     1      -7.373   3.728   2.170  0.00  0.00    +0.000 OA
ATOM     18  H   UNL     1      -8.068   3.057   1.957  0.00  0.00    +0.000 HD
ENDBRANCH   5  17
TORSDOF 4
ENDMDL
MODEL 4
REMARK VINA RESULT:      -4.5      4.692      8.105
REMARK  Name = ox2_esm1_f8_ligand
REMARK  5 active torsions:
REMARK  status: ('A' for Active; 'I' for Inactive)
REMARK    1  A    between atoms: C_1  and  O_2
REMARK    2  A    between atoms: O_2  and  C_3
REMARK    3  A    between atoms: C_6  and  C_7
REMARK    4  A    between atoms: C_7  and  C_9
REMARK    5  A    between atoms: C_15  and  O_16
REMARK                            x       y       z     vdW  Elec       q    Type
REMARK                         _______ _______ _______ _____ _____    ______ ____
ROOT
ATOM      1  C   UNL     1     -11.591   2.896  -4.616  0.00  0.00    +0.000 A 
ATOM      2  C   UNL     1     -12.186   2.294  -3.510  0.00  0.00    +0.000 A 
ATOM      3  C   UNL     1     -11.429   1.525  -2.644  0.00  0.00    +0.000 A 
ATOM      4  C   UNL     1     -10.079   1.334  -2.879  0.00  0.00    +0.000 A 
ATOM      5  C   UNL     1      -9.472   1.938  -3.989  0.00  0.00    +0.000 A 
ATOM      6  C   UNL     1     -10.244   2.720  -4.848  0.00  0.00    +0.000 A 
ENDROOT
BRANCH   1   8
ATOM      7  C   UNL     1     -12.056   5.096  -5.525  0.00  0.00    +0.000 C 
ATOM      8  O   UNL     1     -12.291   3.670  -5.494  0.00  0.00    +0.000 OA
ENDBRANCH   1   8
BRANCH   4   9
ATOM      9  C   UNL     1      -9.250   0.496  -1.958  0.00  0.00    +0.000 C 
ATOM     10  O   UNL     1      -8.562   1.032  -1.116  0.00  0.00    +0.000 OA
BRANCH   9  11
ATOM     11  C   UNL     1      -9.263  -0.980  -2.044  0.00  0.00    +0.000 A 
ATOM     12  C   UNL     1      -8.942  -1.604  -3.245  0.00  0.00    +0.000 A 
ATOM     13  C   UNL     1      -8.946  -2.994  -3.321  0.00  0.00    +0.000 A 
ATOM     14  C   UNL     1      -9.299  -3.768  -2.225  0.00  0.00    +0.000 A 
ATOM     15  C   UNL     1      -9.657  -3.137  -1.044  0.00  0.00    +0.000 A 
ATOM     16  C   UNL     1      -9.636  -1.745  -0.950  0.00  0.00    +0.000 A 
ENDBRANCH   9  11
ENDBRANCH   4   9
BRANCH   5  17
ATOM     17  O   UNL     1      -8.135   1.750  -4.206  0.00  0.00    +0.000 OA
ATOM     18  H   UNL     1      -7.831   1.158  -4.939  0.00  0.00    +0.000 HD
ENDBRANCH   5  17
TORSDOF 4
ENDMDL
MODEL 5
REMARK VINA RESULT:      -4.5     11.115     13.274
REMARK  Name = ox2_esm1_f8_ligand
REMARK  5 active torsions:
REMARK  status: ('A' for Active; 'I' for Inactive)
REMARK    1  A    between atoms: C_1  and  O_2
REMARK    2  A    between atoms: O_2  and  C_3
REMARK    3  A    between atoms: C_6  and  C_7
REMARK    4  A    between atoms: C_7  and  C_9
REMARK    5  A    between atoms: C_15  and  O_16
REMARK                            x       y       z     vdW  Elec       q    Type
REMARK                         _______ _______ _______ _____ _____    ______ ____
ROOT
ATOM      1  C   UNL     1      -8.161   5.850   4.866  0.00  0.00    +0.000 A 
ATOM      2  C   UNL     1      -7.486   5.211   5.904  0.00  0.00    +0.000 A 
ATOM      3  C   UNL     1      -6.804   4.031   5.669  0.00  0.00    +0.000 A 
ATOM      4  C   UNL     1      -6.800   3.466   4.406  0.00  0.00    +0.000 A 
ATOM      5  C   UNL     1      -7.475   4.104   3.355  0.00  0.00    +0.000 A 
ATOM      6  C   UNL     1      -8.149   5.299   3.603  0.00  0.00    +0.000 A 
ENDROOT
BRANCH   1   8
ATOM      7  C   UNL     1      -9.049   7.896   3.913  0.00  0.00    +0.000 C 
ATOM      8  O   UNL     1      -8.841   7.019   5.043  0.00  0.00    +0.000 OA
ENDBRANCH   1   8
BRANCH   4   9
ATOM      9  C   UNL     1      -6.077   2.185   4.140  0.00  0.00    +0.000 C 
ATOM     10  O   UNL     1      -6.692   1.223   3.731  0.00  0.00    +0.000 OA
BRANCH   9  11
ATOM     11  C   UNL     1      -4.619   2.069   4.352  0.00  0.00    +0.000 A 
ATOM     12  C   UNL     1      -3.766   3.040   3.837  0.00  0.00    +0.000 A 
ATOM     13  C   UNL     1      -2.394   2.933   4.046  0.00  0.00    +0.000 A 
ATOM     14  C   UNL     1      -1.858   1.852   4.732  0.00  0.00    +0.000 A 
ATOM     15  C   UNL     1      -2.711   0.867   5.205  0.00  0.00    +0.000 A 
ATOM     16  C   UNL     1      -4.089   0.975   5.020  0.00  0.00    +0.000 A 
ENDBRANCH   9  11
ENDBRANCH   4   9
BRANCH   5  17
ATOM     17  O   UNL     1      -7.456   3.542   2.108  0.00  0.00    +0.000 OA
ATOM     18  H   UNL     1      -8.152   3.782   1.447  0.00  0.00    +0.000 HD
ENDBRANCH   5  17
TORSDOF 4
ENDMDL
MODEL 6
REMARK VINA RESULT:      -4.5     12.225     13.724
REMARK  Name = ox2_esm1_f8_ligand
REMARK  5 active torsions:
REMARK  status: ('A' for Active; 'I' for Inactive)
REMARK    1  A    between atoms: C_1  and  O_2
REMARK    2  A    between atoms: O_2  and  C_3
REMARK    3  A    between atoms: C_6  and  C_7
REMARK    4  A    between atoms: C_7  and  C_9
REMARK    5  A    between atoms: C_15  and  O_16
REMARK                            x       y       z     vdW  Elec       q    Type
REMARK                         _______ _______ _______ _____ _____    ______ ____
ROOT
ATOM      1  C   UNL     1       2.135   2.182   6.283  0.00  0.00    +0.000 A 
ATOM      2  C   UNL     1       1.672   3.164   5.410  0.00  0.00    +0.000 A 
ATOM      3  C   UNL     1       0.573   2.919   4.607  0.00  0.00    +0.000 A 
ATOM      4  C   UNL     1      -0.066   1.692   4.652  0.00  0.00    +0.000 A 
ATOM      5  C   UNL     1       0.393   0.700   5.530  0.00  0.00    +0.000 A 
ATOM      6  C   UNL     1       1.495   0.964   6.342  0.00  0.00    +0.000 A 
ENDROOT
BRANCH   1   8
ATOM      7  C   UNL     1       4.365   1.519   6.971  0.00  0.00    +0.000 C 
ATOM      8  O   UNL     1       3.209   2.377   7.102  0.00  0.00    +0.000 OA
ENDBRANCH   1   8
BRANCH   4   9
ATOM      9  C   UNL     1      -1.249   1.409   3.782  0.00  0.00    +0.000 C 
ATOM     10  O   UNL     1      -1.117   0.707   2.802  0.00  0.00    +0.000 OA
BRANCH   9  11
ATOM     11  C   UNL     1      -2.583   1.958   4.099  0.00  0.00    +0.000 A 
ATOM     12  C   UNL     1      -3.482   1.201   4.844  0.00  0.00    +0.000 A 
ATOM     13  C   UNL     1      -4.736   1.724   5.149  0.00  0.00    +0.000 A 
ATOM     14  C   UNL     1      -5.118   2.978   4.691  0.00  0.00    +0.000 A 
ATOM     15  C   UNL     1      -4.231   3.708   3.915  0.00  0.00    +0.000 A 
ATOM     16  C   UNL     1      -2.965   3.202   3.621  0.00  0.00    +0.000 A 
ENDBRANCH   9  11
ENDBRANCH   4   9
BRANCH   5  17
ATOM     17  O   UNL     1      -0.251  -0.506   5.574  0.00  0.00    +0.000 OA
ATOM     18  H   UNL     1       0.231  -1.334   5.327  0.00  0.00    +0.000 HD
ENDBRANCH   5  17
TORSDOF 4
ENDMDL
MODEL 7
REMARK VINA RESULT:      -4.5      4.838      7.950
REMARK  Name = ox2_esm1_f8_ligand
REMARK  5 active torsions:
REMARK  status: ('A' for Active; 'I' for Inactive)
REMARK    1  A    between atoms: C_1  and  O_2
REMARK    2  A    between atoms: O_2  and  C_3
REMARK    3  A    between atoms: C_6  and  C_7
REMARK    4  A    between atoms: C_7  and  C_9
REMARK    5  A    between atoms: C_15  and  O_16
REMARK                            x       y       z     vdW  Elec       q    Type
REMARK                         _______ _______ _______ _____ _____    ______ ____
ROOT
ATOM      1  C   UNL     1     -10.458   2.962  -5.211  0.00  0.00    +0.000 A 
ATOM      2  C   UNL     1      -9.349   2.136  -5.384  0.00  0.00    +0.000 A 
ATOM      3  C   UNL     1      -8.912   1.332  -4.347  0.00  0.00    +0.000 A 
ATOM      4  C   UNL     1      -9.562   1.352  -3.126  0.00  0.00    +0.000 A 
ATOM      5  C   UNL     1     -10.681   2.178  -2.945  0.00  0.00    +0.000 A 
ATOM      6  C   UNL     1     -11.118   2.976  -4.002  0.00  0.00    +0.000 A 
ENDROOT
BRANCH   1   8
ATOM      7  C   UNL     1     -11.665   4.965  -5.857  0.00  0.00    +0.000 C 
ATOM      8  O   UNL     1     -10.934   3.767  -6.205  0.00  0.00    +0.000 OA
ENDBRANCH   1   8
BRANCH   4   9
ATOM      9  C   UNL     1      -9.095   0.496  -1.992  0.00  0.00    +0.000 C 
ATOM     10  O   UNL     1      -8.602   1.015  -1.013  0.00  0.00    +0.000 OA
BRANCH   9  11
ATOM     11  C   UNL     1      -9.234  -0.975  -2.033  0.00  0.00    +0.000 A 
ATOM     12  C   UNL     1      -9.653  -1.661  -0.898  0.00  0.00    +0.000 A 
ATOM     13  C   UNL     1      -9.791  -3.045  -0.942  0.00  0.00    +0.000 A 
ATOM     14  C   UNL     1      -9.483  -3.758  -2.093  0.00  0.00    +0.000 A 
ATOM     15  C   UNL     1      -9.025  -3.071  -3.207  0.00  0.00    +0.000 A 
ATOM     16  C   UNL     1      -8.904  -1.681  -3.180  0.00  0.00    +0.000 A 
ENDBRANCH   9  11
ENDBRANCH   4   9
BRANCH   5  17
ATOM     17  O   UNL     1     -11.322   2.183  -1.737  0.00  0.00    +0.000 OA
ATOM     18  H   UNL     1     -11.241   1.405  -1.130  0.00  0.00    +0.000 HD
ENDBRANCH   5  17
TORSDOF 4
ENDMDL
MODEL 8
REMARK VINA RESULT:      -4.4     10.910     12.607
REMARK  Name = ox2_esm1_f8_ligand
REMARK  5 active torsions:
REMARK  status: ('A' for Active; 'I' for Inactive)
REMARK    1  A    between atoms: C_1  and  O_2
REMARK    2  A    between atoms: O_2  and  C_3
REMARK    3  A    between atoms: C_6  and  C_7
REMARK    4  A    between atoms: C_7  and  C_9
REMARK    5  A    between atoms: C_15  and  O_16
REMARK                            x       y       z     vdW  Elec       q    Type
REMARK                         _______ _______ _______ _____ _____    ______ ____
ROOT
ATOM      1  C   UNL     1      -7.682   1.374   5.408  0.00  0.00    +0.000 A 
ATOM      2  C   UNL     1      -6.752   2.131   4.698  0.00  0.00    +0.000 A 
ATOM      3  C   UNL     1      -5.473   1.647   4.491  0.00  0.00    +0.000 A 
ATOM      4  C   UNL     1      -5.102   0.415   5.000  0.00  0.00    +0.000 A 
ATOM      5  C   UNL     1      -6.032  -0.353   5.714  0.00  0.00    +0.000 A 
ATOM      6  C   UNL     1      -7.322   0.141   5.907  0.00  0.00    +0.000 A 
ENDROOT
BRANCH   1   8
ATOM      7  C   UNL     1      -9.258   3.214   5.540  0.00  0.00    +0.000 C 
ATOM      8  O   UNL     1      -8.957   1.803   5.633  0.00  0.00    +0.000 OA
ENDBRANCH   1   8
BRANCH   4   9
ATOM      9  C   UNL     1      -3.719  -0.117   4.794  0.00  0.00    +0.000 C 
ATOM     10  O   UNL     1      -3.566  -1.270   4.450  0.00  0.00    +0.000 OA
BRANCH   9  11
ATOM     11  C   UNL     1      -2.531   0.740   4.988  0.00  0.00    +0.000 A 
ATOM     12  C   UNL     1      -2.197   1.178   6.265  0.00  0.00    +0.000 A 
ATOM     13  C   UNL     1      -1.072   1.978   6.446  0.00  0.00    +0.000 A 
ATOM     14  C   UNL     1      -0.296   2.376   5.366  0.00  0.00    +0.000 A 
ATOM     15  C   UNL     1      -0.660   1.969   4.092  0.00  0.00    +0.000 A 
ATOM     16  C   UNL     1      -1.774   1.150   3.901  0.00  0.00    +0.000 A 
ENDBRANCH   9  11
ENDBRANCH   4   9
BRANCH   5  17
ATOM     17  O   UNL     1      -5.658  -1.574   6.205  0.00  0.00    +0.000 OA
ATOM     18  H   UNL     1      -6.308  -2.321   6.224  0.00  0.00    +0.000 HD
ENDBRANCH   5  17
TORSDOF 4
ENDMDL
MODEL 9
REMARK VINA RESULT:      -4.4      2.701      6.402
REMARK  Name = ox2_esm1_f8_ligand
REMARK  5 active torsions:
REMARK  status: ('A' for Active; 'I' for Inactive)
REMARK    1  A    between atoms: C_1  and  O_2
REMARK    2  A    between atoms: O_2  and  C_3
REMARK    3  A    between atoms: C_6  and  C_7
REMARK    4  A    between atoms: C_7  and  C_9
REMARK    5  A    between atoms: C_15  and  O_16
REMARK                            x       y       z     vdW  Elec       q    Type
REMARK                         _______ _______ _______ _____ _____    ______ ____
ROOT
ATOM      1  C   UNL     1      -9.202   0.561  -5.206  0.00  0.00    +0.000 A 
ATOM      2  C   UNL     1      -9.129  -0.207  -6.366  0.00  0.00    +0.000 A 
ATOM      3  C   UNL     1      -9.068  -1.587  -6.285  0.00  0.00    +0.000 A 
ATOM      4  C   UNL     1      -9.064  -2.214  -5.052  0.00  0.00    +0.000 A 
ATOM      5  C   UNL     1      -9.139  -1.448  -3.880  0.00  0.00    +0.000 A 
ATOM      6  C   UNL     1      -9.211  -0.059  -3.976  0.00  0.00    +0.000 A 
ENDROOT
BRANCH   1   8
ATOM      7  C   UNL     1     -10.567   2.566  -5.258  0.00  0.00    +0.000 C 
ATOM      8  O   UNL     1      -9.272   1.923  -5.233  0.00  0.00    +0.000 OA
ENDBRANCH   1   8
BRANCH   4   9
ATOM      9  C   UNL     1      -8.988  -3.704  -4.948  0.00  0.00    +0.000 C 
ATOM     10  O   UNL     1      -9.955  -4.329  -4.568  0.00  0.00    +0.000 OA
BRANCH   9  11
ATOM     11  C   UNL     1      -7.757  -4.436  -5.313  0.00  0.00    +0.000 A 
ATOM     12  C   UNL     1      -7.802  -5.410  -6.306  0.00  0.00    +0.000 A 
ATOM     13  C   UNL     1      -6.639  -6.092  -6.654  0.00  0.00    +0.000 A 
ATOM     14  C   UNL     1      -5.441  -5.841  -6.001  0.00  0.00    +0.000 A 
ATOM     15  C   UNL     1      -5.414  -4.900  -4.984  0.00  0.00    +0.000 A 
ATOM     16  C   UNL     1      -6.569  -4.195  -4.641  0.00  0.00    +0.000 A 
ENDBRANCH   9  11
ENDBRANCH   4   9
BRANCH   5  17
ATOM     17  O   UNL     1      -9.144  -2.079  -2.666  0.00  0.00    +0.000 OA
ATOM     18  H   UNL     1      -8.334  -2.062  -2.097  0.00  0.00    +0.000 HD
ENDBRANCH   5  17
TORSDOF 4
ENDMDL
