REMARK  Name = ox1_orig_f12_ligand
REMARK  5 active torsions:
REMARK  status: ('A' for Active; 'I' for Inactive)
REMARK    1  A    between atoms: C_1  and  O_2
REMARK    2  A    between atoms: O_2  and  C_3
REMARK    3  A    between atoms: C_6  and  C_7
REMARK    4  A    between atoms: C_7  and  C_9
REMARK    5  A    between atoms: C_15  and  O_16
REMARK                            x       y       z     vdW  Elec       q    Type
REMARK                         _______ _______ _______ _____ _____    ______ ____
ROOT
ATOM      1  C   UNL     1       2.736  -5.814   3.867  0.00  0.00    +0.000 A 
ATOM      2  C   UNL     1       3.185  -4.542   4.206  0.00  0.00    +0.000 A 
ATOM      3  C   UNL     1       2.364  -3.689   4.930  0.00  0.00    +0.000 A 
ATOM      4  C   UNL     1       1.087  -4.090   5.313  0.00  0.00    +0.000 A 
ATOM      5  C   UNL     1       0.647  -5.365   4.977  0.00  0.00    +0.000 A 
ATOM      6  C   UNL     1       1.473  -6.218   4.262  0.00  0.00    +0.000 A 
ENDROOT
BRANCH   1   8
ATOM      7  C   UNL     1       3.190  -7.944   2.847  0.00  0.00    +0.000 C 
ATOM      8  O   UNL     1       3.577  -6.623   3.149  0.00  0.00    +0.000 OA
ENDBRANCH   1   8
BRANCH   4   9
ATOM      9  C   UNL     1       0.181  -3.183   6.102  0.00  0.00    +0.000 C 
ATOM     10  O   UNL     1      -0.866  -3.641   6.511  0.00  0.00    +0.000 OA
BRANCH   9  11
ATOM     11  C   UNL     1       0.524  -1.780   6.431  0.00  0.00    +0.000 A 
ATOM     12  C   UNL     1       1.080  -0.924   5.489  0.00  0.00    +0.000 A 
ATOM     13  C   UNL     1       1.398   0.373   5.821  0.00  0.00    +0.000 A 
ATOM     14  C   UNL     1       1.164   0.840   7.105  0.00  0.00    +0.000 A 
ATOM     15  C   UNL     1       0.592   0.003   8.053  0.00  0.00    +0.000 A 
ATOM     16  C   UNL     1       0.249  -1.305   7.721  0.00  0.00    +0.000 A 
ENDBRANCH   9  11
ENDBRANCH   4   9
BRANCH   5  17
ATOM     17  O   UNL     1      -0.593  -5.755   5.364  0.00  0.00    +0.000 OA
ATOM     18  H   UNL     1      -0.922  -6.660   5.133  0.00  0.00    +0.000 HD
ENDBRANCH   5  17
TORSDOF 4
