MODEL 1
REMARK VINA RESULT:      -3.4      0.000      0.000
REMARK  Name = ox1_orig_f12_ligand
REMARK  5 active torsions:
REMARK  status: ('A' for Active; 'I' for Inactive)
REMARK    1  A    between atoms: C_1  and  O_2
REMARK    2  A    between atoms: O_2  and  C_3
REMARK    3  A    between atoms: C_6  and  C_7
REMARK    4  A    between atoms: C_7  and  C_9
REMARK    5  A    between atoms: C_15  and  O_16
REMARK                            x       y       z     vdW  Elec       q    Type
REMARK                         _______ _______ _______ _____ _____    ______ ____
ROOT
ATOM      1  C   UNL     1      -0.200  -0.900  -1.385  0.00  0.00    +0.000 A 
ATOM      2  C   UNL     1       1.117  -0.511  -1.603  0.00  0.00    +0.000 A 
ATOM      3  C   UNL     1       1.956  -0.278  -0.522  0.00  0.00    +0.000 A 
ATOM      4  C   UNL     1       1.489  -0.419   0.782  0.00  0.00    +0.000 A 
ATOM      5  C   UNL     1       0.173  -0.814   0.992  0.00  0.00    +0.000 A 
ATOM      6  C   UNL     1      -0.660  -1.056  -0.089  0.00  0.00    +0.000 A 
ENDROOT
BRANCH   1   8
ATOM      7  C   UNL     1      -0.414  -1.504  -3.703  0.00  0.00    +0.000 C 
ATOM      8  O   UNL     1      -0.996  -1.116  -2.480  0.00  0.00    +0.000 OA
ENDBRANCH   1   8
BRANCH   4   9
ATOM      9  C   UNL     1       2.383  -0.176   1.968  0.00  0.00    +0.000 C 
ATOM     10  O   UNL     1       2.147   0.787   2.670  0.00  0.00    +0.000 OA
BRANCH   9  11
ATOM     11  C   UNL     1       3.504  -1.071   2.337  0.00  0.00    +0.000 A 
ATOM     12  C   UNL     1       4.778  -0.900   1.811  0.00  0.00    +0.000 A 
ATOM     13  C   UNL     1       5.802  -1.750   2.162  0.00  0.00    +0.000 A 
ATOM     14  C   UNL     1       5.570  -2.789   3.050  0.00  0.00    +0.000 A 
ATOM     15  C   UNL     1       4.307  -2.962   3.600  0.00  0.00    +0.000 A 
ATOM     16  C   UNL     1       3.270  -2.095   3.265  0.00  0.00    +0.000 A 
ENDBRANCH   9  11
ENDBRANCH   4   9
BRANCH   5  17
ATOM     17  O   UNL     1      -0.273  -0.963   2.264  0.00  0.00    +0.000 OA
ATOM     18  H   UNL     1      -1.220  -1.196   2.433  0.00  0.00    +0.000 HD
ENDBRANCH   5  17
TORSDOF 4
ENDMDL
MODEL 2
REMARK VINA RESULT:      -3.1      2.925      4.505
REMARK  Name = ox1_orig_f12_ligand
REMARK  5 active torsions:
REMARK  status: ('A' for Active; 'I' for Inactive)
REMARK    1  A    between atoms: C_1  and  O_2
REMARK    2  A    between atoms: O_2  and  C_3
REMARK    3  A    between atoms: C_6  and  C_7
REMARK    4  A    between atoms: C_7  and  C_9
REMARK    5  A    between atoms: C_15  and  O_16
REMARK                            x       y       z     vdW  Elec       q    Type
REMARK                         _______ _______ _______ _____ _____    ______ ____
ROOT
ATOM      1  C   UNL     1      -4.074   1.107   0.576  0.00  0.00    +0.000 A 
ATOM      2  C   UNL     1      -3.016   1.902   0.149  0.00  0.00    +0.000 A 
ATOM      3  C   UNL     1      -1.834   1.312  -0.275  0.00  0.00    +0.000 A 
ATOM      4  C   UNL     1      -1.691  -0.073  -0.267  0.00  0.00    +0.000 A 
ATOM      5  C   UNL     1      -2.754  -0.863   0.154  0.00  0.00    +0.000 A 
ATOM      6  C   UNL     1      -3.937  -0.270   0.568  0.00  0.00    +0.000 A 
ENDROOT
BRANCH   1   8
ATOM      7  C   UNL     1      -5.314   2.227   2.305  0.00  0.00    +0.000 C 
ATOM      8  O   UNL     1      -5.221   1.730   0.990  0.00  0.00    +0.000 OA
ENDBRANCH   1   8
BRANCH   4   9
ATOM      9  C   UNL     1      -0.419  -0.735  -0.726  0.00  0.00    +0.000 C 
ATOM     10  O   UNL     1      -0.451  -1.375  -1.758  0.00  0.00    +0.000 OA
BRANCH   9  11
ATOM     11  C   UNL     1       0.867  -0.612  -0.002  0.00  0.00    +0.000 A 
ATOM     12  C   UNL     1       2.028  -0.194  -0.641  0.00  0.00    +0.000 A 
ATOM     13  C   UNL     1       3.213  -0.095   0.051  0.00  0.00    +0.000 A 
ATOM     14  C   UNL     1       3.260  -0.412   1.400  0.00  0.00    +0.000 A 
ATOM     15  C   UNL     1       2.105  -0.813   2.057  0.00  0.00    +0.000 A 
ATOM     16  C   UNL     1       0.897  -0.897   1.370  0.00  0.00    +0.000 A 
ENDBRANCH   9  11
ENDBRANCH   4   9
BRANCH   5  17
ATOM     17  O   UNL     1      -2.614  -2.212   0.147  0.00  0.00    +0.000 OA
ATOM     18  H   UNL     1      -1.872  -2.630  -0.358  0.00  0.00    +0.000 HD
ENDBRANCH   5  17
TORSDOF 4
ENDMDL
MODEL 3
REMARK VINA RESULT:      -3.0      5.808      6.718
REMARK  Name = ox1_orig_f12_ligand
REMARK  5 active torsions:
REMARK  status: ('A' for Active; 'I' for Inactive)
REMARK    1  A    between atoms: C_1  and  O_2
REMARK    2  A    between atoms: O_2  and  C_3
REMARK    3  A    between atoms: C_6  and  C_7
REMARK    4  A    between atoms: C_7  and  C_9
REMARK    5  A    between atoms: C_15  and  O_16
REMARK                            x       y       z     vdW  Elec       q    Type
REMARK                         _______ _______ _______ _____ _____    ______ ____
ROOT
ATOM      1  C   UNL     1       2.911  -8.216  -1.997  0.00  0.00    +0.000 A 
ATOM      2  C   UNL     1       4.228  -8.079  -1.570  0.00  0.00    +0.000 A 
ATOM      3  C   UNL     1       4.498  -7.843  -0.230  0.00  0.00    +0.000 A 
ATOM      4  C   UNL     1       3.463  -7.731   0.694  0.00  0.00    +0.000 A 
ATOM      5  C   UNL     1       2.149  -7.876   0.261  0.00  0.00    +0.000 A 
ATOM      6  C   UNL     1       1.883  -8.121  -1.077  0.00  0.00    +0.000 A 
ENDROOT
BRANCH   1   8
ATOM      7  C   UNL     1       1.379  -8.693  -3.788  0.00  0.00    +0.000 C 
ATOM      8  O   UNL     1       2.688  -8.446  -3.330  0.00  0.00    +0.000 OA
ENDBRANCH   1   8
BRANCH   4   9
ATOM      9  C   UNL     1       3.733  -7.479   2.153  0.00  0.00    +0.000 C 
ATOM     10  O   UNL     1       3.586  -8.403   2.926  0.00  0.00    +0.000 OA
BRANCH   9  11
ATOM     11  C   UNL     1       4.202  -6.176   2.678  0.00  0.00    +0.000 A 
ATOM     12  C   UNL     1       3.336  -5.282   3.294  0.00  0.00    +0.000 A 
ATOM     13  C   UNL     1       3.794  -4.073   3.767  0.00  0.00    +0.000 A 
ATOM     14  C   UNL     1       5.132  -3.735   3.632  0.00  0.00    +0.000 A 
ATOM     15  C   UNL     1       6.014  -4.625   3.035  0.00  0.00    +0.000 A 
ATOM     16  C   UNL     1       5.564  -5.858   2.571  0.00  0.00    +0.000 A 
ENDBRANCH   9  11
ENDBRANCH   4   9
BRANCH   5  17
ATOM     17  O   UNL     1       1.145  -7.778   1.167  0.00  0.00    +0.000 OA
ATOM     18  H   UNL     1       1.239  -8.201   2.058  0.00  0.00    +0.000 HD
ENDBRANCH   5  17
TORSDOF 4
ENDMDL
MODEL 4
REMARK VINA RESULT:      -3.0      2.963      4.478
REMARK  Name = ox1_orig_f12_ligand
REMARK  5 active torsions:
REMARK  status: ('A' for Active; 'I' for Inactive)
REMARK    1  A    between atoms: C_1  and  O_2
REMARK    2  A    between atoms: O_2  and  C_3
REMARK    3  A    between atoms: C_6  and  C_7
REMARK    4  A    between atoms: C_7  and  C_9
REMARK    5  A    between atoms: C_15  and  O_16
REMARK                            x       y       z     vdW  Elec       q    Type
REMARK                         _______ _______ _______ _____ _____    ______ ____
ROOT
ATOM      1  C   UNL     1      -2.123   0.649   1.908  0.00  0.00    +0.000 A 
ATOM      2  C   UNL     1      -1.580   1.683   1.152  0.00  0.00    +0.000 A 
ATOM      3  C   UNL     1      -0.266   1.603   0.713  0.00  0.00    +0.000 A 
ATOM      4  C   UNL     1       0.522   0.501   1.032  0.00  0.00    +0.000 A 
ATOM      5  C   UNL     1      -0.028  -0.532   1.782  0.00  0.00    +0.000 A 
ATOM      6  C   UNL     1      -1.344  -0.454   2.210  0.00  0.00    +0.000 A 
ENDROOT
BRANCH   1   8
ATOM      7  C   UNL     1      -4.397   1.275   1.439  0.00  0.00    +0.000 C 
ATOM      8  O   UNL     1      -3.423   0.769   2.323  0.00  0.00    +0.000 OA
ENDBRANCH   1   8
BRANCH   4   9
ATOM      9  C   UNL     1       1.948   0.392   0.563  0.00  0.00    +0.000 C 
ATOM     10  O   UNL     1       2.829   0.642   1.360  0.00  0.00    +0.000 OA
BRANCH   9  11
ATOM     11  C   UNL     1       2.323  -0.040  -0.803  0.00  0.00    +0.000 A 
ATOM     12  C   UNL     1       1.370  -0.232  -1.795  0.00  0.00    +0.000 A 
ATOM     13  C   UNL     1       1.742  -0.641  -3.055  0.00  0.00    +0.000 A 
ATOM     14  C   UNL     1       3.078  -0.866  -3.348  0.00  0.00    +0.000 A 
ATOM     15  C   UNL     1       4.044  -0.661  -2.373  0.00  0.00    +0.000 A 
ATOM     16  C   UNL     1       3.680  -0.228  -1.101  0.00  0.00    +0.000 A 
ENDBRANCH   9  11
ENDBRANCH   4   9
BRANCH   5  17
ATOM     17  O   UNL     1       0.740  -1.610   2.078  0.00  0.00    +0.000 OA
ATOM     18  H   UNL     1       0.357  -2.365   2.591  0.00  0.00    +0.000 HD
ENDBRANCH   5  17
TORSDOF 4
ENDMDL
MODEL 5
REMARK VINA RESULT:      -3.0      3.193      5.596
REMARK  Name = ox1_orig_f12_ligand
REMARK  5 active torsions:
REMARK  status: ('A' for Active; 'I' for Inactive)
REMARK    1  A    between atoms: C_1  and  O_2
REMARK    2  A    between atoms: O_2  and  C_3
REMARK    3  A    between atoms: C_6  and  C_7
REMARK    4  A    between atoms: C_7  and  C_9
REMARK    5  A    between atoms: C_15  and  O_16
REMARK                            x       y       z     vdW  Elec       q    Type
REMARK                         _______ _______ _______ _____ _____    ______ ____
ROOT
ATOM      1  C   UNL     1      -0.302   2.051   2.762  0.00  0.00    +0.000 A 
ATOM      2  C   UNL     1      -0.766   2.495   1.528  0.00  0.00    +0.000 A 
ATOM      3  C   UNL     1      -0.825   1.618   0.455  0.00  0.00    +0.000 A 
ATOM      4  C   UNL     1      -0.414   0.295   0.597  0.00  0.00    +0.000 A 
ATOM      5  C   UNL     1       0.041  -0.144   1.835  0.00  0.00    +0.000 A 
ATOM      6  C   UNL     1       0.090   0.732   2.907  0.00  0.00    +0.000 A 
ENDROOT
BRANCH   1   8
ATOM      7  C   UNL     1       0.781   2.875   4.744  0.00  0.00    +0.000 C 
ATOM      8  O   UNL     1      -0.257   2.951   3.794  0.00  0.00    +0.000 OA
ENDBRANCH   1   8
BRANCH   4   9
ATOM      9  C   UNL     1      -0.474  -0.675  -0.552  0.00  0.00    +0.000 C 
ATOM     10  O   UNL     1      -1.395  -1.465  -0.583  0.00  0.00    +0.000 OA
BRANCH   9  11
ATOM     11  C   UNL     1       0.512  -0.685  -1.658  0.00  0.00    +0.000 A 
ATOM     12  C   UNL     1       1.865  -0.464  -1.432  0.00  0.00    +0.000 A 
ATOM     13  C   UNL     1       2.761  -0.469  -2.476  0.00  0.00    +0.000 A 
ATOM     14  C   UNL     1       2.320  -0.699  -3.770  0.00  0.00    +0.000 A 
ATOM     15  C   UNL     1       0.974  -0.940  -4.010  0.00  0.00    +0.000 A 
ATOM     16  C   UNL     1       0.063  -0.956  -2.958  0.00  0.00    +0.000 A 
ENDBRANCH   9  11
ENDBRANCH   4   9
BRANCH   5  17
ATOM     17  O   UNL     1       0.428  -1.437   1.971  0.00  0.00    +0.000 OA
ATOM     18  H   UNL     1       0.154  -1.955   2.770  0.00  0.00    +0.000 HD
ENDBRANCH   5  17
TORSDOF 4
ENDMDL
MODEL 6
REMARK VINA RESULT:      -3.0      3.042      5.408
REMARK  Name = ox1_orig_f12_ligand
REMARK  5 active torsions:
REMARK  status: ('A' for Active; 'I' for Inactive)
REMARK    1  A    between atoms: C_1  and  O_2
REMARK    2  A    between atoms: O_2  and  C_3
REMARK    3  A    between atoms: C_6  and  C_7
REMARK    4  A    between atoms: C_7  and  C_9
REMARK    5  A    between atoms: C_15  and  O_16
REMARK                            x       y       z     vdW  Elec       q    Type
REMARK                         _______ _______ _______ _____ _____    ______ ____
ROOT
ATOM      1  C   UNL     1      -2.289   2.376   2.359  0.00  0.00    +0.000 A 
ATOM      2  C   UNL     1      -2.198   2.682   1.005  0.00  0.00    +0.000 A 
ATOM      3  C   UNL     1      -1.756   1.721   0.107  0.00  0.00    +0.000 A 
ATOM      4  C   UNL     1      -1.391   0.452   0.549  0.00  0.00    +0.000 A 
ATOM      5  C   UNL     1      -1.491   0.150   1.902  0.00  0.00    +0.000 A 
ATOM      6  C   UNL     1      -1.942   1.110   2.795  0.00  0.00    +0.000 A 
ENDROOT
BRANCH   1   8
ATOM      7  C   UNL     1      -3.092   3.022   4.532  0.00  0.00    +0.000 C 
ATOM      8  O   UNL     1      -2.728   3.355   3.212  0.00  0.00    +0.000 OA
ENDBRANCH   1   8
BRANCH   4   9
ATOM      9  C   UNL     1      -0.912  -0.607  -0.408  0.00  0.00    +0.000 C 
ATOM     10  O   UNL     1      -1.656  -1.536  -0.645  0.00  0.00    +0.000 OA
BRANCH   9  11
ATOM     11  C   UNL     1       0.398  -0.547  -1.095  0.00  0.00    +0.000 A 
ATOM     12  C   UNL     1       0.504  -0.652  -2.476  0.00  0.00    +0.000 A 
ATOM     13  C   UNL     1       1.734  -0.601  -3.091  0.00  0.00    +0.000 A 
ATOM     14  C   UNL     1       2.884  -0.444  -2.335  0.00  0.00    +0.000 A 
ATOM     15  C   UNL     1       2.795  -0.319  -0.955  0.00  0.00    +0.000 A 
ATOM     16  C   UNL     1       1.553  -0.349  -0.326  0.00  0.00    +0.000 A 
ENDBRANCH   9  11
ENDBRANCH   4   9
BRANCH   5  17
ATOM     17  O   UNL     1      -1.147  -1.091   2.325  0.00  0.00    +0.000 OA
ATOM     18  H   UNL     1      -1.563  -1.469   3.141  0.00  0.00    +0.000 HD
ENDBRANCH   5  17
TORSDOF 4
ENDMDL
MODEL 7
REMARK VINA RESULT:      -2.9      2.939      5.245
REMARK  Name = ox1_orig_f12_ligand
REMARK  5 active torsions:
REMARK  status: ('A' for Active; 'I' for Inactive)
REMARK    1  A    between atoms: C_1  and  O_2
REMARK    2  A    between atoms: O_2  and  C_3
REMARK    3  A    between atoms: C_6  and  C_7
REMARK    4  A    between atoms: C_7  and  C_9
REMARK    5  A    between atoms: C_15  and  O_16
REMARK                            x       y       z     vdW  Elec       q    Type
REMARK                         _______ _______ _______ _____ _____    ______ ____
ROOT
ATOM      1  C   UNL     1      -1.342   2.314   3.329  0.00  0.00    +0.000 A 
ATOM      2  C   UNL     1      -0.088   2.652   2.833  0.00  0.00    +0.000 A 
ATOM      3  C   UNL     1       0.662   1.708   2.145  0.00  0.00    +0.000 A 
ATOM      4  C   UNL     1       0.174   0.418   1.954  0.00  0.00    +0.000 A 
ATOM      5  C   UNL     1      -1.083   0.089   2.447  0.00  0.00    +0.000 A 
ATOM      6  C   UNL     1      -1.833   1.037   3.125  0.00  0.00    +0.000 A 
ENDROOT
BRANCH   1   8
ATOM      7  C   UNL     1      -3.437   3.394   3.806  0.00  0.00    +0.000 C 
ATOM      8  O   UNL     1      -2.047   3.275   4.005  0.00  0.00    +0.000 OA
ENDBRANCH   1   8
BRANCH   4   9
ATOM      9  C   UNL     1       0.968  -0.620   1.208  0.00  0.00    +0.000 C 
ATOM     10  O   UNL     1       1.410  -1.559   1.837  0.00  0.00    +0.000 OA
BRANCH   9  11
ATOM     11  C   UNL     1       1.199  -0.569  -0.255  0.00  0.00    +0.000 A 
ATOM     12  C   UNL     1       2.458  -0.322  -0.787  0.00  0.00    +0.000 A 
ATOM     13  C   UNL     1       2.646  -0.271  -2.149  0.00  0.00    +0.000 A 
ATOM     14  C   UNL     1       1.575  -0.466  -3.007  0.00  0.00    +0.000 A 
ATOM     15  C   UNL     1       0.314  -0.731  -2.492  0.00  0.00    +0.000 A 
ATOM     16  C   UNL     1       0.118  -0.805  -1.115  0.00  0.00    +0.000 A 
ENDBRANCH   9  11
ENDBRANCH   4   9
BRANCH   5  17
ATOM     17  O   UNL     1      -1.559  -1.166   2.247  0.00  0.00    +0.000 OA
ATOM     18  H   UNL     1      -1.404  -1.868   2.928  0.00  0.00    +0.000 HD
ENDBRANCH   5  17
TORSDOF 4
ENDMDL
MODEL 8
REMARK VINA RESULT:      -2.9      6.650      8.668
REMARK  Name = ox1_orig_f12_ligand
REMARK  5 active torsions:
REMARK  status: ('A' for Active; 'I' for Inactive)
REMARK    1  A    between atoms: C_1  and  O_2
REMARK    2  A    between atoms: O_2  and  C_3
REMARK    3  A    between atoms: C_6  and  C_7
REMARK    4  A    between atoms: C_7  and  C_9
REMARK    5  A    between atoms: C_15  and  O_16
REMARK                            x       y       z     vdW  Elec       q    Type
REMARK                         _______ _______ _______ _____ _____    ______ ____
ROOT
ATOM      1  C   UNL     1       2.787  -7.520   1.944  0.00  0.00    +0.000 A 
ATOM      2  C   UNL     1       4.063  -7.395   1.407  0.00  0.00    +0.000 A 
ATOM      3  C   UNL     1       4.280  -7.682   0.066  0.00  0.00    +0.000 A 
ATOM      4  C   UNL     1       3.232  -8.105  -0.747  0.00  0.00    +0.000 A 
ATOM      5  C   UNL     1       1.958  -8.221  -0.205  0.00  0.00    +0.000 A 
ATOM      6  C   UNL     1       1.742  -7.925   1.132  0.00  0.00    +0.000 A 
ENDROOT
BRANCH   1   8
ATOM      7  C   UNL     1       3.385  -6.212   3.871  0.00  0.00    +0.000 C 
ATOM      8  O   UNL     1       2.617  -7.231   3.273  0.00  0.00    +0.000 OA
ENDBRANCH   1   8
BRANCH   4   9
ATOM      9  C   UNL     1       3.444  -8.417  -2.204  0.00  0.00    +0.000 C 
ATOM     10  O   UNL     1       3.475  -9.584  -2.537  0.00  0.00    +0.000 OA
BRANCH   9  11
ATOM     11  C   UNL     1       3.577  -7.373  -3.247  0.00  0.00    +0.000 A 
ATOM     12  C   UNL     1       4.680  -6.531  -3.300  0.00  0.00    +0.000 A 
ATOM     13  C   UNL     1       4.777  -5.562  -4.273  0.00  0.00    +0.000 A 
ATOM     14  C   UNL     1       3.770  -5.420  -5.215  0.00  0.00    +0.000 A 
ATOM     15  C   UNL     1       2.670  -6.266  -5.187  0.00  0.00    +0.000 A 
ATOM     16  C   UNL     1       2.572  -7.261  -4.218  0.00  0.00    +0.000 A 
ENDBRANCH   9  11
ENDBRANCH   4   9
BRANCH   5  17
ATOM     17  O   UNL     1       0.938  -8.621  -1.005  0.00  0.00    +0.000 OA
ATOM     18  H   UNL     1       1.101  -9.289  -1.718  0.00  0.00    +0.000 HD
ENDBRANCH   5  17
TORSDOF 4
ENDMDL
MODEL 9
REMARK VINA RESULT:      -2.9      5.610      7.682
REMARK  Name = ox1_orig_f12_ligand
REMARK  5 active torsions:
REMARK  status: ('A' for Active; 'I' for Inactive)
REMARK    1  A    between atoms: C_1  and  O_2
REMARK    2  A    between atoms: O_2  and  C_3
REMARK    3  A    between atoms: C_6  and  C_7
REMARK    4  A    between atoms: C_7  and  C_9
REMARK    5  A    between atoms: C_15  and  O_16
REMARK                            x       y       z     vdW  Elec       q    Type
REMARK                         _______ _______ _______ _____ _____    ______ ____
ROOT
ATOM      1  C   UNL     1       3.882  -3.666   7.401  0.00  0.00    +0.000 A 
ATOM      2  C   UNL     1       4.504  -4.899   7.231  0.00  0.00    +0.000 A 
ATOM      3  C   UNL     1       4.553  -5.481   5.973  0.00  0.00    +0.000 A 
ATOM      4  C   UNL     1       3.975  -4.848   4.876  0.00  0.00    +0.000 A 
ATOM      5  C   UNL     1       3.361  -3.614   5.050  0.00  0.00    +0.000 A 
ATOM      6  C   UNL     1       3.322  -3.030   6.307  0.00  0.00    +0.000 A 
ENDROOT
BRANCH   1   8
ATOM      7  C   UNL     1       4.840  -3.488   9.599  0.00  0.00    +0.000 C 
ATOM      8  O   UNL     1       3.853  -3.128   8.660  0.00  0.00    +0.000 OA
ENDBRANCH   1   8
BRANCH   4   9
ATOM      9  C   UNL     1       4.020  -5.460   3.501  0.00  0.00    +0.000 C 
ATOM     10  O   UNL     1       2.972  -5.817   3.003  0.00  0.00    +0.000 OA
BRANCH   9  11
ATOM     11  C   UNL     1       5.269  -5.609   2.719  0.00  0.00    +0.000 A 
ATOM     12  C   UNL     1       6.267  -4.643   2.746  0.00  0.00    +0.000 A 
ATOM     13  C   UNL     1       7.416  -4.800   2.005  0.00  0.00    +0.000 A 
ATOM     14  C   UNL     1       7.589  -5.930   1.221  0.00  0.00    +0.000 A 
ATOM     15  C   UNL     1       6.610  -6.913   1.197  0.00  0.00    +0.000 A 
ATOM     16  C   UNL     1       5.453  -6.772   1.959  0.00  0.00    +0.000 A 
ENDBRANCH   9  11
ENDBRANCH   4   9
BRANCH   5  17
ATOM     17  O   UNL     1       2.811  -2.996   3.976  0.00  0.00    +0.000 OA
ATOM     18  H   UNL     1       2.657  -2.018   3.992  0.00  0.00    +0.000 HD
ENDBRANCH   5  17
TORSDOF 4
ENDMDL
