REMARK  Name = s2_esm2_control_ligand
REMARK  12 active torsions:
REMARK  status: ('A' for Active; 'I' for Inactive)
REMARK    1  A    between atoms: C_1  and  C_2
REMARK    2  A    between atoms: C_2  and  C_3
REMARK    3  A    between atoms: C_3  and  C_4
REMARK    4  A    between atoms: C_4  and  C_5
REMARK    5  A    between atoms: C_5  and  C_6
REMARK    6  A    between atoms: C_5  and  O_8
REMARK    7  A    between atoms: C_6  and  C_7
REMARK    8  A    between atoms: O_8  and  C_9
REMARK    9  A    between atoms: C_9  and  C_11
REMARK   10  A    between atoms: C_12  and  C_13
REMARK   11  A    between atoms: C_16  and  O_17
REMARK   12  A    between atoms: O_17  and  C_18
REMARK                            x       y       z     vdW  Elec       q    Type
REMARK                         _______ _______ _______ _____ _____    ______ ____
ROOT
ATOM      1  C   UNL     1       2.727   7.857   7.134  0.00  0.00    +0.000 C 
ATOM      2  O   UNL     1       2.097   8.764   7.609  0.00  0.00    +0.000 OA
ENDROOT
BRANCH   1   3
ATOM      3  C   UNL     1       2.681   7.492   5.695  0.00  0.00    +0.000 C 
ATOM      4  C   UNL     1       1.898   8.233   4.862  0.00  0.00    +0.000 C 
BRANCH   4   5
ATOM      5  C   UNL     1       1.803   7.996   3.407  0.00  0.00    +0.000 A 
ATOM      6  C   UNL     1       0.938   8.788   2.673  0.00  0.00    +0.000 A 
ATOM      7  C   UNL     1       0.820   8.622   1.306  0.00  0.00    +0.000 A 
ATOM      8  C   UNL     1       1.559   7.670   0.654  0.00  0.00    +0.000 A 
ATOM      9  C   UNL     1       2.423   6.881   1.381  0.00  0.00    +0.000 A 
ATOM     10  C   UNL     1       2.541   7.046   2.755  0.00  0.00    +0.000 A 
BRANCH   8  11
ATOM     11  O   UNL     1       1.408   7.551  -0.686  0.00  0.00    +0.000 OA
ATOM     12  C   UNL     1       2.224   6.642  -1.413  0.00  0.00    +0.000 C 
ENDBRANCH   8  11
ENDBRANCH   4   5
ENDBRANCH   1   3
BRANCH   1  13
ATOM     13  O   UNL     1       3.550   7.109   7.897  0.00  0.00    +0.000 OA
BRANCH  13  14
ATOM     14  C   UNL     1       3.709   7.428   9.269  0.00  0.00    +0.000 C 
BRANCH  14  15
ATOM     15  C   UNL     1       3.410   6.178  10.094  0.00  0.00    +0.000 C 
ATOM     16  C   UNL     1       2.240   6.327  11.051  0.00  0.00    +0.000 C 
ENDBRANCH  14  15
BRANCH  14  17
ATOM     17  C   UNL     1       5.125   7.884   9.525  0.00  0.00    +0.000 C 
BRANCH  17  18
ATOM     18  C   UNL     1       5.585   8.977   8.611  0.00  0.00    +0.000 C 
BRANCH  18  20
ATOM     19  C   UNL     1       7.453  10.491   7.946  0.00  0.00    +0.000 C 
ATOM     20  C   UNL     1       6.971   9.445   8.945  0.00  0.00    +0.000 C 
ENDBRANCH  18  20
ENDBRANCH  17  18
ENDBRANCH  14  17
ENDBRANCH  13  14
ENDBRANCH   1  13
TORSDOF 9
