MODEL 1
REMARK VINA RESULT:      -5.2      0.000      0.000
REMARK  Name = s2_esm2_control_ligand
REMARK  12 active torsions:
REMARK  status: ('A' for Active; 'I' for Inactive)
REMARK    1  A    between atoms: C_1  and  C_2
REMARK    2  A    between atoms: C_2  and  C_3
REMARK    3  A    between atoms: C_3  and  C_4
REMARK    4  A    between atoms: C_4  and  C_5
REMARK    5  A    between atoms: C_5  and  C_6
REMARK    6  A    between atoms: C_5  and  O_8
REMARK    7  A    between atoms: C_6  and  C_7
REMARK    8  A    between atoms: O_8  and  C_9
REMARK    9  A    between atoms: C_9  and  C_11
REMARK   10  A    between atoms: C_12  and  C_13
REMARK   11  A    between atoms: C_16  and  O_17
REMARK   12  A    between atoms: O_17  and  C_18
REMARK                            x       y       z     vdW  Elec       q    Type
REMARK                         _______ _______ _______ _____ _____    ______ ____
ROOT
ATOM      1  C   UNL     1      -0.253   4.016  -2.927  0.00  0.00    +0.000 C 
ATOM      2  O   UNL     1       0.591   3.261  -3.330  0.00  0.00    +0.000 OA
ENDROOT
BRANCH   1   3
ATOM      3  C   UNL     1       0.007   5.071  -1.914  0.00  0.00    +0.000 C 
ATOM      4  C   UNL     1       0.565   6.243  -2.326  0.00  0.00    +0.000 C 
BRANCH   4   5
ATOM      5  C   UNL     1       0.831   7.381  -1.422  0.00  0.00    +0.000 A 
ATOM      6  C   UNL     1      -0.015   7.568  -0.343  0.00  0.00    +0.000 A 
ATOM      7  C   UNL     1       0.195   8.607   0.544  0.00  0.00    +0.000 A 
ATOM      8  C   UNL     1       1.246   9.469   0.371  0.00  0.00    +0.000 A 
ATOM      9  C   UNL     1       2.092   9.285  -0.700  0.00  0.00    +0.000 A 
ATOM     10  C   UNL     1       1.881   8.243  -1.594  0.00  0.00    +0.000 A 
BRANCH   8  11
ATOM     11  O   UNL     1       1.409  10.467   1.271  0.00  0.00    +0.000 OA
ATOM     12  C   UNL     1       0.484  10.613   2.341  0.00  0.00    +0.000 C 
ENDBRANCH   8  11
ENDBRANCH   4   5
ENDBRANCH   1   3
BRANCH   1  13
ATOM     13  O   UNL     1      -1.515   3.962  -3.398  0.00  0.00    +0.000 OA
BRANCH  13  14
ATOM     14  C   UNL     1      -2.576   4.471  -2.607  0.00  0.00    +0.000 C 
BRANCH  14  15
ATOM     15  C   UNL     1      -3.243   5.613  -3.371  0.00  0.00    +0.000 C 
ATOM     16  C   UNL     1      -3.069   6.978  -2.729  0.00  0.00    +0.000 C 
ENDBRANCH  14  15
BRANCH  14  17
ATOM     17  C   UNL     1      -3.582   3.378  -2.339  0.00  0.00    +0.000 C 
BRANCH  17  18
ATOM     18  C   UNL     1      -4.989   3.869  -2.202  0.00  0.00    +0.000 C 
BRANCH  18  20
ATOM     19  C   UNL     1      -5.144   2.017  -0.537  0.00  0.00    +0.000 C 
ATOM     20  C   UNL     1      -5.622   3.413  -0.920  0.00  0.00    +0.000 C 
ENDBRANCH  18  20
ENDBRANCH  17  18
ENDBRANCH  14  17
ENDBRANCH  13  14
ENDBRANCH   1  13
TORSDOF 9
ENDMDL
MODEL 2
REMARK VINA RESULT:      -4.9      2.392      7.478
REMARK  Name = s2_esm2_control_ligand
REMARK  12 active torsions:
REMARK  status: ('A' for Active; 'I' for Inactive)
REMARK    1  A    between atoms: C_1  and  C_2
REMARK    2  A    between atoms: C_2  and  C_3
REMARK    3  A    between atoms: C_3  and  C_4
REMARK    4  A    between atoms: C_4  and  C_5
REMARK    5  A    between atoms: C_5  and  C_6
REMARK    6  A    between atoms: C_5  and  O_8
REMARK    7  A    between atoms: C_6  and  C_7
REMARK    8  A    between atoms: O_8  and  C_9
REMARK    9  A    between atoms: C_9  and  C_11
REMARK   10  A    between atoms: C_12  and  C_13
REMARK   11  A    between atoms: C_16  and  O_17
REMARK   12  A    between atoms: O_17  and  C_18
REMARK                            x       y       z     vdW  Elec       q    Type
REMARK                         _______ _______ _______ _____ _____    ______ ____
ROOT
ATOM      1  C   UNL     1      -2.474   4.213  -3.621  0.00  0.00    +0.000 C 
ATOM      2  O   UNL     1      -2.734   4.054  -4.784  0.00  0.00    +0.000 OA
ENDROOT
BRANCH   1   3
ATOM      3  C   UNL     1      -3.217   3.553  -2.517  0.00  0.00    +0.000 C 
ATOM      4  C   UNL     1      -4.430   4.059  -2.157  0.00  0.00    +0.000 C 
BRANCH   4   5
ATOM      5  C   UNL     1      -5.282   3.466  -1.106  0.00  0.00    +0.000 A 
ATOM      6  C   UNL     1      -6.352   4.208  -0.640  0.00  0.00    +0.000 A 
ATOM      7  C   UNL     1      -7.193   3.697   0.331  0.00  0.00    +0.000 A 
ATOM      8  C   UNL     1      -6.980   2.446   0.848  0.00  0.00    +0.000 A 
ATOM      9  C   UNL     1      -5.917   1.703   0.384  0.00  0.00    +0.000 A 
ATOM     10  C   UNL     1      -5.070   2.217  -0.590  0.00  0.00    +0.000 A 
BRANCH   8  11
ATOM     11  O   UNL     1      -7.835   1.992   1.794  0.00  0.00    +0.000 OA
ATOM     12  C   UNL     1      -7.756   0.642   2.231  0.00  0.00    +0.000 C 
ENDBRANCH   8  11
ENDBRANCH   4   5
ENDBRANCH   1   3
BRANCH   1  13
ATOM     13  O   UNL     1      -1.451   5.005  -3.240  0.00  0.00    +0.000 OA
BRANCH  13  14
ATOM     14  C   UNL     1      -0.432   4.476  -2.409  0.00  0.00    +0.000 C 
BRANCH  14  15
ATOM     15  C   UNL     1       0.465   3.576  -3.256  0.00  0.00    +0.000 C 
ATOM     16  C   UNL     1       1.481   4.326  -4.100  0.00  0.00    +0.000 C 
ENDBRANCH  14  15
BRANCH  14  17
ATOM     17  C   UNL     1       0.381   5.603  -1.820  0.00  0.00    +0.000 C 
BRANCH  17  18
ATOM     18  C   UNL     1      -0.443   6.682  -1.191  0.00  0.00    +0.000 C 
BRANCH  18  20
ATOM     19  C   UNL     1      -0.364   8.332   0.680  0.00  0.00    +0.000 C 
ATOM     20  C   UNL     1       0.403   7.691  -0.472  0.00  0.00    +0.000 C 
ENDBRANCH  18  20
ENDBRANCH  17  18
ENDBRANCH  14  17
ENDBRANCH  13  14
ENDBRANCH   1  13
TORSDOF 9
ENDMDL
MODEL 3
REMARK VINA RESULT:      -4.8      1.114      2.551
REMARK  Name = s2_esm2_control_ligand
REMARK  12 active torsions:
REMARK  status: ('A' for Active; 'I' for Inactive)
REMARK    1  A    between atoms: C_1  and  C_2
REMARK    2  A    between atoms: C_2  and  C_3
REMARK    3  A    between atoms: C_3  and  C_4
REMARK    4  A    between atoms: C_4  and  C_5
REMARK    5  A    between atoms: C_5  and  C_6
REMARK    6  A    between atoms: C_5  and  O_8
REMARK    7  A    between atoms: C_6  and  C_7
REMARK    8  A    between atoms: O_8  and  C_9
REMARK    9  A    between atoms: C_9  and  C_11
REMARK   10  A    between atoms: C_12  and  C_13
REMARK   11  A    between atoms: C_16  and  O_17
REMARK   12  A    between atoms: O_17  and  C_18
REMARK                            x       y       z     vdW  Elec       q    Type
REMARK                         _______ _______ _______ _____ _____    ______ ____
ROOT
ATOM      1  C   UNL     1      -0.272   4.243  -2.729  0.00  0.00    +0.000 C 
ATOM      2  O   UNL     1       0.275   3.410  -3.401  0.00  0.00    +0.000 OA
ENDROOT
BRANCH   1   3
ATOM      3  C   UNL     1       0.366   5.525  -2.333  0.00  0.00    +0.000 C 
ATOM      4  C   UNL     1      -0.149   6.206  -1.271  0.00  0.00    +0.000 C 
BRANCH   4   5
ATOM      5  C   UNL     1       0.423   7.466  -0.755  0.00  0.00    +0.000 A 
ATOM      6  C   UNL     1      -0.167   8.042   0.356  0.00  0.00    +0.000 A 
ATOM      7  C   UNL     1       0.336   9.213   0.892  0.00  0.00    +0.000 A 
ATOM      8  C   UNL     1       1.427   9.822   0.332  0.00  0.00    +0.000 A 
ATOM      9  C   UNL     1       2.018   9.251  -0.773  0.00  0.00    +0.000 A 
ATOM     10  C   UNL     1       1.513   8.075  -1.314  0.00  0.00    +0.000 A 
BRANCH   8  11
ATOM     11  O   UNL     1       1.881  10.965   0.898  0.00  0.00    +0.000 OA
ATOM     12  C   UNL     1       1.873  11.107   2.312  0.00  0.00    +0.000 C 
ENDBRANCH   8  11
ENDBRANCH   4   5
ENDBRANCH   1   3
BRANCH   1  13
ATOM     13  O   UNL     1      -1.538   4.068  -2.300  0.00  0.00    +0.000 OA
BRANCH  13  14
ATOM     14  C   UNL     1      -2.573   3.866  -3.248  0.00  0.00    +0.000 C 
BRANCH  14  15
ATOM     15  C   UNL     1      -3.716   3.120  -2.564  0.00  0.00    +0.000 C 
ATOM     16  C   UNL     1      -4.755   2.558  -3.520  0.00  0.00    +0.000 C 
ENDBRANCH  14  15
BRANCH  14  17
ATOM     17  C   UNL     1      -3.063   5.199  -3.758  0.00  0.00    +0.000 C 
BRANCH  17  18
ATOM     18  C   UNL     1      -3.669   6.068  -2.700  0.00  0.00    +0.000 C 
BRANCH  18  20
ATOM     19  C   UNL     1      -2.234   7.667  -3.968  0.00  0.00    +0.000 C 
ATOM     20  C   UNL     1      -3.216   7.494  -2.814  0.00  0.00    +0.000 C 
ENDBRANCH  18  20
ENDBRANCH  17  18
ENDBRANCH  14  17
ENDBRANCH  13  14
ENDBRANCH   1  13
TORSDOF 9
ENDMDL
MODEL 4
REMARK VINA RESULT:      -4.8      2.158      7.697
REMARK  Name = s2_esm2_control_ligand
REMARK  12 active torsions:
REMARK  status: ('A' for Active; 'I' for Inactive)
REMARK    1  A    between atoms: C_1  and  C_2
REMARK    2  A    between atoms: C_2  and  C_3
REMARK    3  A    between atoms: C_3  and  C_4
REMARK    4  A    between atoms: C_4  and  C_5
REMARK    5  A    between atoms: C_5  and  C_6
REMARK    6  A    between atoms: C_5  and  O_8
REMARK    7  A    between atoms: C_6  and  C_7
REMARK    8  A    between atoms: O_8  and  C_9
REMARK    9  A    between atoms: C_9  and  C_11
REMARK   10  A    between atoms: C_12  and  C_13
REMARK   11  A    between atoms: C_16  and  O_17
REMARK   12  A    between atoms: O_17  and  C_18
REMARK                            x       y       z     vdW  Elec       q    Type
REMARK                         _______ _______ _______ _____ _____    ______ ____
ROOT
ATOM      1  C   UNL     1      -2.259   6.253  -3.194  0.00  0.00    +0.000 C 
ATOM      2  O   UNL     1      -2.797   6.929  -4.031  0.00  0.00    +0.000 OA
ENDROOT
BRANCH   1   3
ATOM      3  C   UNL     1      -2.846   5.003  -2.650  0.00  0.00    +0.000 C 
ATOM      4  C   UNL     1      -4.150   5.016  -2.255  0.00  0.00    +0.000 C 
BRANCH   4   5
ATOM      5  C   UNL     1      -4.858   3.826  -1.739  0.00  0.00    +0.000 A 
ATOM      6  C   UNL     1      -4.412   2.579  -2.138  0.00  0.00    +0.000 A 
ATOM      7  C   UNL     1      -5.026   1.430  -1.674  0.00  0.00    +0.000 A 
ATOM      8  C   UNL     1      -6.085   1.508  -0.809  0.00  0.00    +0.000 A 
ATOM      9  C   UNL     1      -6.530   2.748  -0.407  0.00  0.00    +0.000 A 
ATOM     10  C   UNL     1      -5.916   3.903  -0.874  0.00  0.00    +0.000 A 
BRANCH   8  11
ATOM     11  O   UNL     1      -6.648   0.353  -0.382  0.00  0.00    +0.000 OA
ATOM     12  C   UNL     1      -7.024   0.209   0.981  0.00  0.00    +0.000 C 
ENDBRANCH   8  11
ENDBRANCH   4   5
ENDBRANCH   1   3
BRANCH   1  13
ATOM     13  O   UNL     1      -1.050   6.590  -2.702  0.00  0.00    +0.000 OA
BRANCH  13  14
ATOM     14  C   UNL     1      -0.267   5.607  -2.046  0.00  0.00    +0.000 C 
BRANCH  14  15
ATOM     15  C   UNL     1       0.781   5.088  -3.028  0.00  0.00    +0.000 C 
ATOM     16  C   UNL     1       0.578   3.645  -3.453  0.00  0.00    +0.000 C 
ENDBRANCH  14  15
BRANCH  14  17
ATOM     17  C   UNL     1       0.414   6.217  -0.844  0.00  0.00    +0.000 C 
BRANCH  17  18
ATOM     18  C   UNL     1      -0.088   7.583  -0.491  0.00  0.00    +0.000 C 
BRANCH  18  20
ATOM     19  C   UNL     1       0.939   9.591   0.575  0.00  0.00    +0.000 C 
ATOM     20  C   UNL     1       0.986   8.624  -0.603  0.00  0.00    +0.000 C 
ENDBRANCH  18  20
ENDBRANCH  17  18
ENDBRANCH  14  17
ENDBRANCH  13  14
ENDBRANCH   1  13
TORSDOF 9
ENDMDL
MODEL 5
REMARK VINA RESULT:      -4.7      1.314      2.157
REMARK  Name = s2_esm2_control_ligand
REMARK  12 active torsions:
REMARK  status: ('A' for Active; 'I' for Inactive)
REMARK    1  A    between atoms: C_1  and  C_2
REMARK    2  A    between atoms: C_2  and  C_3
REMARK    3  A    between atoms: C_3  and  C_4
REMARK    4  A    between atoms: C_4  and  C_5
REMARK    5  A    between atoms: C_5  and  C_6
REMARK    6  A    between atoms: C_5  and  O_8
REMARK    7  A    between atoms: C_6  and  C_7
REMARK    8  A    between atoms: O_8  and  C_9
REMARK    9  A    between atoms: C_9  and  C_11
REMARK   10  A    between atoms: C_12  and  C_13
REMARK   11  A    between atoms: C_16  and  O_17
REMARK   12  A    between atoms: O_17  and  C_18
REMARK                            x       y       z     vdW  Elec       q    Type
REMARK                         _______ _______ _______ _____ _____    ______ ____
ROOT
ATOM      1  C   UNL     1      -1.456   4.151  -2.925  0.00  0.00    +0.000 C 
ATOM      2  O   UNL     1      -0.712   3.631  -3.714  0.00  0.00    +0.000 OA
ENDROOT
BRANCH   1   3
ATOM      3  C   UNL     1      -1.181   5.460  -2.279  0.00  0.00    +0.000 C 
ATOM      4  C   UNL     1       0.042   5.661  -1.713  0.00  0.00    +0.000 C 
BRANCH   4   5
ATOM      5  C   UNL     1       0.449   6.933  -1.081  0.00  0.00    +0.000 A 
ATOM      6  C   UNL     1       1.507   7.628  -1.638  0.00  0.00    +0.000 A 
ATOM      7  C   UNL     1       1.921   8.831  -1.099  0.00  0.00    +0.000 A 
ATOM      8  C   UNL     1       1.289   9.357  -0.002  0.00  0.00    +0.000 A 
ATOM      9  C   UNL     1       0.233   8.669   0.554  0.00  0.00    +0.000 A 
ATOM     10  C   UNL     1      -0.182   7.459   0.013  0.00  0.00    +0.000 A 
BRANCH   8  11
ATOM     11  O   UNL     1       1.732  10.540   0.484  0.00  0.00    +0.000 OA
ATOM     12  C   UNL     1       3.096  10.905   0.325  0.00  0.00    +0.000 C 
ENDBRANCH   8  11
ENDBRANCH   4   5
ENDBRANCH   1   3
BRANCH   1  13
ATOM     13  O   UNL     1      -2.624   3.569  -2.584  0.00  0.00    +0.000 OA
BRANCH  13  14
ATOM     14  C   UNL     1      -3.836   4.078  -3.115  0.00  0.00    +0.000 C 
BRANCH  14  15
ATOM     15  C   UNL     1      -4.446   3.017  -4.029  0.00  0.00    +0.000 C 
ATOM     16  C   UNL     1      -4.214   3.260  -5.510  0.00  0.00    +0.000 C 
ENDBRANCH  14  15
BRANCH  14  17
ATOM     17  C   UNL     1      -4.791   4.396  -1.991  0.00  0.00    +0.000 C 
BRANCH  17  18
ATOM     18  C   UNL     1      -5.200   3.202  -1.186  0.00  0.00    +0.000 C 
BRANCH  18  20
ATOM     19  C   UNL     1      -6.873   4.914  -0.483  0.00  0.00    +0.000 C 
ATOM     20  C   UNL     1      -6.467   3.446  -0.420  0.00  0.00    +0.000 C 
ENDBRANCH  18  20
ENDBRANCH  17  18
ENDBRANCH  14  17
ENDBRANCH  13  14
ENDBRANCH   1  13
TORSDOF 9
ENDMDL
MODEL 6
REMARK VINA RESULT:      -4.6     11.138     14.069
REMARK  Name = s2_esm2_control_ligand
REMARK  12 active torsions:
REMARK  status: ('A' for Active; 'I' for Inactive)
REMARK    1  A    between atoms: C_1  and  C_2
REMARK    2  A    between atoms: C_2  and  C_3
REMARK    3  A    between atoms: C_3  and  C_4
REMARK    4  A    between atoms: C_4  and  C_5
REMARK    5  A    between atoms: C_5  and  C_6
REMARK    6  A    between atoms: C_5  and  O_8
REMARK    7  A    between atoms: C_6  and  C_7
REMARK    8  A    between atoms: O_8  and  C_9
REMARK    9  A    between atoms: C_9  and  C_11
REMARK   10  A    between atoms: C_12  and  C_13
REMARK   11  A    between atoms: C_16  and  O_17
REMARK   12  A    between atoms: O_17  and  C_18
REMARK                            x       y       z     vdW  Elec       q    Type
REMARK                         _______ _______ _______ _____ _____    ______ ____
ROOT
ATOM      1  C   UNL     1      -5.227   7.893   9.007  0.00  0.00    +0.000 C 
ATOM      2  O   UNL     1      -6.424   7.994   9.063  0.00  0.00    +0.000 OA
ENDROOT
BRANCH   1   3
ATOM      3  C   UNL     1      -4.451   6.898   9.790  0.00  0.00    +0.000 C 
ATOM      4  C   UNL     1      -4.655   6.828  11.135  0.00  0.00    +0.000 C 
BRANCH   4   5
ATOM      5  C   UNL     1      -3.976   5.853  12.013  0.00  0.00    +0.000 A 
ATOM      6  C   UNL     1      -2.778   5.311  11.582  0.00  0.00    +0.000 A 
ATOM      7  C   UNL     1      -2.091   4.406  12.369  0.00  0.00    +0.000 A 
ATOM      8  C   UNL     1      -2.585   4.030  13.590  0.00  0.00    +0.000 A 
ATOM      9  C   UNL     1      -3.776   4.569  14.024  0.00  0.00    +0.000 A 
ATOM     10  C   UNL     1      -4.468   5.478  13.233  0.00  0.00    +0.000 A 
BRANCH   8  11
ATOM     11  O   UNL     1      -1.871   3.143  14.323  0.00  0.00    +0.000 OA
ATOM     12  C   UNL     1      -2.200   2.925  15.688  0.00  0.00    +0.000 C 
ENDBRANCH   8  11
ENDBRANCH   4   5
ENDBRANCH   1   3
BRANCH   1  13
ATOM     13  O   UNL     1      -4.501   8.687   8.194  0.00  0.00    +0.000 OA
BRANCH  13  14
ATOM     14  C   UNL     1      -3.497   9.520   8.749  0.00  0.00    +0.000 C 
BRANCH  14  15
ATOM     15  C   UNL     1      -2.734  10.186   7.605  0.00  0.00    +0.000 C 
ATOM     16  C   UNL     1      -3.360   9.984   6.236  0.00  0.00    +0.000 C 
ENDBRANCH  14  15
BRANCH  14  17
ATOM     17  C   UNL     1      -4.135  10.574   9.621  0.00  0.00    +0.000 C 
BRANCH  17  18
ATOM     18  C   UNL     1      -3.588  10.622  11.014  0.00  0.00    +0.000 C 
BRANCH  18  20
ATOM     19  C   UNL     1      -5.829  10.121  11.988  0.00  0.00    +0.000 C 
ATOM     20  C   UNL     1      -4.623  11.053  12.011  0.00  0.00    +0.000 C 
ENDBRANCH  18  20
ENDBRANCH  17  18
ENDBRANCH  14  17
ENDBRANCH  13  14
ENDBRANCH   1  13
TORSDOF 9
ENDMDL
MODEL 7
REMARK VINA RESULT:      -4.6     10.609     13.603
REMARK  Name = s2_esm2_control_ligand
REMARK  12 active torsions:
REMARK  status: ('A' for Active; 'I' for Inactive)
REMARK    1  A    between atoms: C_1  and  C_2
REMARK    2  A    between atoms: C_2  and  C_3
REMARK    3  A    between atoms: C_3  and  C_4
REMARK    4  A    between atoms: C_4  and  C_5
REMARK    5  A    between atoms: C_5  and  C_6
REMARK    6  A    between atoms: C_5  and  O_8
REMARK    7  A    between atoms: C_6  and  C_7
REMARK    8  A    between atoms: O_8  and  C_9
REMARK    9  A    between atoms: C_9  and  C_11
REMARK   10  A    between atoms: C_12  and  C_13
REMARK   11  A    between atoms: C_16  and  O_17
REMARK   12  A    between atoms: O_17  and  C_18
REMARK                            x       y       z     vdW  Elec       q    Type
REMARK                         _______ _______ _______ _____ _____    ______ ____
ROOT
ATOM      1  C   UNL     1       6.348   5.791   4.609  0.00  0.00    +0.000 C 
ATOM      2  O   UNL     1       5.424   5.301   4.017  0.00  0.00    +0.000 OA
ENDROOT
BRANCH   1   3
ATOM      3  C   UNL     1       6.470   5.784   6.089  0.00  0.00    +0.000 C 
ATOM      4  C   UNL     1       6.569   4.584   6.726  0.00  0.00    +0.000 C 
BRANCH   4   5
ATOM      5  C   UNL     1       6.738   4.449   8.187  0.00  0.00    +0.000 A 
ATOM      6  C   UNL     1       8.024   4.458   8.698  0.00  0.00    +0.000 A 
ATOM      7  C   UNL     1       8.242   4.351  10.058  0.00  0.00    +0.000 A 
ATOM      8  C   UNL     1       7.188   4.234  10.925  0.00  0.00    +0.000 A 
ATOM      9  C   UNL     1       5.906   4.227  10.421  0.00  0.00    +0.000 A 
ATOM     10  C   UNL     1       5.686   4.333   9.054  0.00  0.00    +0.000 A 
BRANCH   8  11
ATOM     11  O   UNL     1       7.456   4.136  12.249  0.00  0.00    +0.000 OA
ATOM     12  C   UNL     1       8.562   4.838  12.801  0.00  0.00    +0.000 C 
ENDBRANCH   8  11
ENDBRANCH   4   5
ENDBRANCH   1   3
BRANCH   1  13
ATOM     13  O   UNL     1       7.366   6.376   3.944  0.00  0.00    +0.000 OA
BRANCH  13  14
ATOM     14  C   UNL     1       8.626   6.510   4.580  0.00  0.00    +0.000 C 
BRANCH  14  15
ATOM     15  C   UNL     1       9.647   5.675   3.810  0.00  0.00    +0.000 C 
ATOM     16  C   UNL     1      10.025   4.370   4.489  0.00  0.00    +0.000 C 
ENDBRANCH  14  15
BRANCH  14  17
ATOM     17  C   UNL     1       9.045   7.960   4.578  0.00  0.00    +0.000 C 
BRANCH  17  18
ATOM     18  C   UNL     1       9.068   8.587   5.938  0.00  0.00    +0.000 C 
BRANCH  18  20
ATOM     19  C   UNL     1      10.708   7.764   7.628  0.00  0.00    +0.000 C 
ATOM     20  C   UNL     1       9.323   7.578   7.019  0.00  0.00    +0.000 C 
ENDBRANCH  18  20
ENDBRANCH  17  18
ENDBRANCH  14  17
ENDBRANCH  13  14
ENDBRANCH   1  13
TORSDOF 9
ENDMDL
MODEL 8
REMARK VINA RESULT:      -4.5      2.218      7.524
REMARK  Name = s2_esm2_control_ligand
REMARK  12 active torsions:
REMARK  status: ('A' for Active; 'I' for Inactive)
REMARK    1  A    between atoms: C_1  and  C_2
REMARK    2  A    between atoms: C_2  and  C_3
REMARK    3  A    between atoms: C_3  and  C_4
REMARK    4  A    between atoms: C_4  and  C_5
REMARK    5  A    between atoms: C_5  and  C_6
REMARK    6  A    between atoms: C_5  and  O_8
REMARK    7  A    between atoms: C_6  and  C_7
REMARK    8  A    between atoms: O_8  and  C_9
REMARK    9  A    between atoms: C_9  and  C_11
REMARK   10  A    between atoms: C_12  and  C_13
REMARK   11  A    between atoms: C_16  and  O_17
REMARK   12  A    between atoms: O_17  and  C_18
REMARK                            x       y       z     vdW  Elec       q    Type
REMARK                         _______ _______ _______ _____ _____    ______ ____
ROOT
ATOM      1  C   UNL     1      -1.126   4.535  -3.412  0.00  0.00    +0.000 C 
ATOM      2  O   UNL     1      -1.158   4.191  -4.564  0.00  0.00    +0.000 OA
ENDROOT
BRANCH   1   3
ATOM      3  C   UNL     1      -2.295   4.456  -2.500  0.00  0.00    +0.000 C 
ATOM      4  C   UNL     1      -3.234   3.496  -2.731  0.00  0.00    +0.000 C 
BRANCH   4   5
ATOM      5  C   UNL     1      -4.417   3.290  -1.870  0.00  0.00    +0.000 A 
ATOM      6  C   UNL     1      -4.629   2.027  -1.346  0.00  0.00    +0.000 A 
ATOM      7  C   UNL     1      -5.711   1.779  -0.522  0.00  0.00    +0.000 A 
ATOM      8  C   UNL     1      -6.591   2.781  -0.208  0.00  0.00    +0.000 A 
ATOM      9  C   UNL     1      -6.382   4.040  -0.726  0.00  0.00    +0.000 A 
ATOM     10  C   UNL     1      -5.296   4.290  -1.556  0.00  0.00    +0.000 A 
BRANCH   8  11
ATOM     11  O   UNL     1      -7.631   2.486   0.606  0.00  0.00    +0.000 OA
ATOM     12  C   UNL     1      -7.594   2.877   1.973  0.00  0.00    +0.000 C 
ENDBRANCH   8  11
ENDBRANCH   4   5
ENDBRANCH   1   3
BRANCH   1  13
ATOM     13  O   UNL     1       0.011   5.008  -2.860  0.00  0.00    +0.000 OA
BRANCH  13  14
ATOM     14  C   UNL     1       0.035   6.326  -2.339  0.00  0.00    +0.000 C 
BRANCH  14  15
ATOM     15  C   UNL     1       0.366   6.251  -0.850  0.00  0.00    +0.000 C 
ATOM     16  C   UNL     1      -0.035   7.483  -0.059  0.00  0.00    +0.000 C 
ENDBRANCH  14  15
BRANCH  14  17
ATOM     17  C   UNL     1       1.086   7.138  -3.057  0.00  0.00    +0.000 C 
BRANCH  17  18
ATOM     18  C   UNL     1       2.487   6.832  -2.628  0.00  0.00    +0.000 C 
BRANCH  18  20
ATOM     19  C   UNL     1       2.920   9.085  -1.648  0.00  0.00    +0.000 C 
ATOM     20  C   UNL     1       3.368   8.046  -2.671  0.00  0.00    +0.000 C 
ENDBRANCH  18  20
ENDBRANCH  17  18
ENDBRANCH  14  17
ENDBRANCH  13  14
ENDBRANCH   1  13
TORSDOF 9
ENDMDL
MODEL 9
REMARK VINA RESULT:      -4.5      1.328      3.186
REMARK  Name = s2_esm2_control_ligand
REMARK  12 active torsions:
REMARK  status: ('A' for Active; 'I' for Inactive)
REMARK    1  A    between atoms: C_1  and  C_2
REMARK    2  A    between atoms: C_2  and  C_3
REMARK    3  A    between atoms: C_3  and  C_4
REMARK    4  A    between atoms: C_4  and  C_5
REMARK    5  A    between atoms: C_5  and  C_6
REMARK    6  A    between atoms: C_5  and  O_8
REMARK    7  A    between atoms: C_6  and  C_7
REMARK    8  A    between atoms: O_8  and  C_9
REMARK    9  A    between atoms: C_9  and  C_11
REMARK   10  A    between atoms: C_12  and  C_13
REMARK   11  A    between atoms: C_16  and  O_17
REMARK   12  A    between atoms: O_17  and  C_18
REMARK                            x       y       z     vdW  Elec       q    Type
REMARK                         _______ _______ _______ _____ _____    ______ ____
ROOT
ATOM      1  C   UNL     1      -0.055   5.324  -2.003  0.00  0.00    +0.000 C 
ATOM      2  O   UNL     1       0.618   4.853  -2.880  0.00  0.00    +0.000 OA
ENDROOT
BRANCH   1   3
ATOM      3  C   UNL     1       0.448   6.331  -1.034  0.00  0.00    +0.000 C 
ATOM      4  C   UNL     1      -0.297   7.450  -0.814  0.00  0.00    +0.000 C 
BRANCH   4   5
ATOM      5  C   UNL     1       0.075   8.501   0.155  0.00  0.00    +0.000 A 
ATOM      6  C   UNL     1       1.243   9.208  -0.068  0.00  0.00    +0.000 A 
ATOM      7  C   UNL     1       1.633  10.214   0.797  0.00  0.00    +0.000 A 
ATOM      8  C   UNL     1       0.869  10.527   1.890  0.00  0.00    +0.000 A 
ATOM      9  C   UNL     1      -0.296   9.826   2.114  0.00  0.00    +0.000 A 
ATOM     10  C   UNL     1      -0.688   8.815   1.247  0.00  0.00    +0.000 A 
BRANCH   8  11
ATOM     11  O   UNL     1       1.294  11.522   2.703  0.00  0.00    +0.000 OA
ATOM     12  C   UNL     1       1.641  12.786   2.154  0.00  0.00    +0.000 C 
ENDBRANCH   8  11
ENDBRANCH   4   5
ENDBRANCH   1   3
BRANCH   1  13
ATOM     13  O   UNL     1      -1.348   4.970  -1.854  0.00  0.00    +0.000 OA
BRANCH  13  14
ATOM     14  C   UNL     1      -2.216   5.015  -2.974  0.00  0.00    +0.000 C 
BRANCH  14  15
ATOM     15  C   UNL     1      -2.736   3.604  -3.239  0.00  0.00    +0.000 C 
ATOM     16  C   UNL     1      -3.827   3.151  -2.285  0.00  0.00    +0.000 C 
ENDBRANCH  14  15
BRANCH  14  17
ATOM     17  C   UNL     1      -3.372   5.941  -2.686  0.00  0.00    +0.000 C 
BRANCH  17  18
ATOM     18  C   UNL     1      -3.079   7.383  -2.965  0.00  0.00    +0.000 C 
BRANCH  18  20
ATOM     19  C   UNL     1      -3.278   9.471  -1.615  0.00  0.00    +0.000 C 
ATOM     20  C   UNL     1      -4.023   8.300  -2.244  0.00  0.00    +0.000 C 
ENDBRANCH  18  20
ENDBRANCH  17  18
ENDBRANCH  14  17
ENDBRANCH  13  14
ENDBRANCH   1  13
TORSDOF 9
ENDMDL
