MODEL 1
REMARK VINA RESULT:      -3.9      0.000      0.000
REMARK  Name = s3_orig_f12_ligand
REMARK  12 active torsions:
REMARK  status: ('A' for Active; 'I' for Inactive)
REMARK    1  A    between atoms: C_1  and  C_2
REMARK    2  A    between atoms: C_2  and  C_3
REMARK    3  A    between atoms: C_3  and  C_4
REMARK    4  A    between atoms: C_4  and  C_5
REMARK    5  A    between atoms: C_5  and  C_6
REMARK    6  A    between atoms: C_5  and  O_8
REMARK    7  A    between atoms: C_6  and  C_7
REMARK    8  A    between atoms: O_8  and  C_9
REMARK    9  A    between atoms: C_9  and  C_11
REMARK   10  A    between atoms: C_12  and  C_13
REMARK   11  A    between atoms: C_16  and  O_17
REMARK   12  A    between atoms: O_17  and  C_18
REMARK                            x       y       z     vdW  Elec       q    Type
REMARK                         _______ _______ _______ _____ _____    ______ ____
ROOT
ATOM      1  C   UNL     1       3.496   8.384   3.160  0.00  0.00    +0.000 C 
ATOM      2  O   UNL     1       2.739   8.170   2.248  0.00  0.00    +0.000 OA
ENDROOT
BRANCH   1   3
ATOM      3  C   UNL     1       4.556   7.449   3.601  0.00  0.00    +0.000 C 
ATOM      4  C   UNL     1       4.823   7.242   4.888  0.00  0.00    +0.000 C 
BRANCH   4   5
ATOM      5  C   UNL     1       5.934   6.394   5.388  0.00  0.00    +0.000 A 
ATOM      6  C   UNL     1       7.241   6.741   5.084  0.00  0.00    +0.000 A 
ATOM      7  C   UNL     1       8.297   5.922   5.470  0.00  0.00    +0.000 A 
ATOM      8  C   UNL     1       8.070   4.782   6.212  0.00  0.00    +0.000 A 
ATOM      9  C   UNL     1       6.781   4.471   6.555  0.00  0.00    +0.000 A 
ATOM     10  C   UNL     1       5.715   5.271   6.144  0.00  0.00    +0.000 A 
BRANCH   8  11
ATOM     11  O   UNL     1       9.087   3.949   6.630  0.00  0.00    +0.000 OA
ATOM     12  C   UNL     1       8.737   2.832   7.425  0.00  0.00    +0.000 C 
ENDBRANCH   8  11
ENDBRANCH   4   5
ENDBRANCH   1   3
BRANCH   1  13
ATOM     13  O   UNL     1       3.363   9.439   3.798  0.00  0.00    +0.000 OA
BRANCH  13  14
ATOM     14  C   UNL     1       3.057  10.338   4.712  0.00  0.00    +0.000 C 
BRANCH  14  15
ATOM     15  C   UNL     1       2.093   9.749   5.724  0.00  0.00    +0.000 C 
ATOM     16  C   UNL     1       0.696   9.486   5.173  0.00  0.00    +0.000 C 
ENDBRANCH  14  15
BRANCH  14  17
ATOM     17  C   UNL     1       4.294  10.869   5.417  0.00  0.00    +0.000 C 
BRANCH  17  18
ATOM     18  C   UNL     1       5.376  11.355   4.509  0.00  0.00    +0.000 C 
BRANCH  18  20
ATOM     19  C   UNL     1       7.067  10.077   3.184  0.00  0.00    +0.000 C 
ATOM     20  C   UNL     1       6.613  10.496   4.566  0.00  0.00    +0.000 C 
ENDBRANCH  18  20
ENDBRANCH  17  18
ENDBRANCH  14  17
ENDBRANCH  13  14
ENDBRANCH   1  13
TORSDOF 9
ENDMDL
MODEL 2
REMARK VINA RESULT:      -3.7     14.876     16.633
REMARK  Name = s3_orig_f12_ligand
REMARK  12 active torsions:
REMARK  status: ('A' for Active; 'I' for Inactive)
REMARK    1  A    between atoms: C_1  and  C_2
REMARK    2  A    between atoms: C_2  and  C_3
REMARK    3  A    between atoms: C_3  and  C_4
REMARK    4  A    between atoms: C_4  and  C_5
REMARK    5  A    between atoms: C_5  and  C_6
REMARK    6  A    between atoms: C_5  and  O_8
REMARK    7  A    between atoms: C_6  and  C_7
REMARK    8  A    between atoms: O_8  and  C_9
REMARK    9  A    between atoms: C_9  and  C_11
REMARK   10  A    between atoms: C_12  and  C_13
REMARK   11  A    between atoms: C_16  and  O_17
REMARK   12  A    between atoms: O_17  and  C_18
REMARK                            x       y       z     vdW  Elec       q    Type
REMARK                         _______ _______ _______ _____ _____    ______ ____
ROOT
ATOM      1  C   UNL     1      -4.460  -2.528  10.114  0.00  0.00    +0.000 C 
ATOM      2  O   UNL     1      -4.211  -1.611  10.854  0.00  0.00    +0.000 OA
ENDROOT
BRANCH   1   3
ATOM      3  C   UNL     1      -3.726  -3.814  10.105  0.00  0.00    +0.000 C 
ATOM      4  C   UNL     1      -3.323  -4.387   8.973  0.00  0.00    +0.000 C 
BRANCH   4   5
ATOM      5  C   UNL     1      -2.671  -5.718   8.894  0.00  0.00    +0.000 A 
ATOM      6  C   UNL     1      -2.235  -6.330  10.058  0.00  0.00    +0.000 A 
ATOM      7  C   UNL     1      -1.550  -7.539  10.007  0.00  0.00    +0.000 A 
ATOM      8  C   UNL     1      -1.343  -8.182   8.804  0.00  0.00    +0.000 A 
ATOM      9  C   UNL     1      -1.822  -7.599   7.661  0.00  0.00    +0.000 A 
ATOM     10  C   UNL     1      -2.483  -6.372   7.703  0.00  0.00    +0.000 A 
BRANCH   8  11
ATOM     11  O   UNL     1      -0.683  -9.390   8.708  0.00  0.00    +0.000 OA
ATOM     12  C   UNL     1      -0.140  -9.743   7.450  0.00  0.00    +0.000 C 
ENDBRANCH   8  11
ENDBRANCH   4   5
ENDBRANCH   1   3
BRANCH   1  13
ATOM     13  O   UNL     1      -5.366  -2.381   9.281  0.00  0.00    +0.000 OA
BRANCH  13  14
ATOM     14  C   UNL     1      -6.500  -2.459   8.614  0.00  0.00    +0.000 C 
BRANCH  14  15
ATOM     15  C   UNL     1      -6.266  -2.159   7.145  0.00  0.00    +0.000 C 
ATOM     16  C   UNL     1      -4.814  -1.851   6.798  0.00  0.00    +0.000 C 
ENDBRANCH  14  15
BRANCH  14  17
ATOM     17  C   UNL     1      -7.153  -3.823   8.770  0.00  0.00    +0.000 C 
BRANCH  17  18
ATOM     18  C   UNL     1      -7.146  -4.668   7.538  0.00  0.00    +0.000 C 
BRANCH  18  20
ATOM     19  C   UNL     1      -6.370  -6.471   9.086  0.00  0.00    +0.000 C 
ATOM     20  C   UNL     1      -6.295  -5.903   7.684  0.00  0.00    +0.000 C 
ENDBRANCH  18  20
ENDBRANCH  17  18
ENDBRANCH  14  17
ENDBRANCH  13  14
ENDBRANCH   1  13
TORSDOF 9
ENDMDL
MODEL 3
REMARK VINA RESULT:      -3.5     18.485     19.890
REMARK  Name = s3_orig_f12_ligand
REMARK  12 active torsions:
REMARK  status: ('A' for Active; 'I' for Inactive)
REMARK    1  A    between atoms: C_1  and  C_2
REMARK    2  A    between atoms: C_2  and  C_3
REMARK    3  A    between atoms: C_3  and  C_4
REMARK    4  A    between atoms: C_4  and  C_5
REMARK    5  A    between atoms: C_5  and  C_6
REMARK    6  A    between atoms: C_5  and  O_8
REMARK    7  A    between atoms: C_6  and  C_7
REMARK    8  A    between atoms: O_8  and  C_9
REMARK    9  A    between atoms: C_9  and  C_11
REMARK   10  A    between atoms: C_12  and  C_13
REMARK   11  A    between atoms: C_16  and  O_17
REMARK   12  A    between atoms: O_17  and  C_18
REMARK                            x       y       z     vdW  Elec       q    Type
REMARK                         _______ _______ _______ _____ _____    ______ ____
ROOT
ATOM      1  C   UNL     1      -3.663  -7.489   0.012  0.00  0.00    +0.000 C 
ATOM      2  O   UNL     1      -2.867  -8.312   0.386  0.00  0.00    +0.000 OA
ENDROOT
BRANCH   1   3
ATOM      3  C   UNL     1      -4.688  -6.866   0.880  0.00  0.00    +0.000 C 
ATOM      4  C   UNL     1      -5.837  -7.475   1.161  0.00  0.00    +0.000 C 
BRANCH   4   5
ATOM      5  C   UNL     1      -6.940  -6.862   1.943  0.00  0.00    +0.000 A 
ATOM      6  C   UNL     1      -6.763  -6.628   3.297  0.00  0.00    +0.000 A 
ATOM      7  C   UNL     1      -7.807  -6.130   4.071  0.00  0.00    +0.000 A 
ATOM      8  C   UNL     1      -9.017  -5.803   3.495  0.00  0.00    +0.000 A 
ATOM      9  C   UNL     1      -9.170  -5.986   2.146  0.00  0.00    +0.000 A 
ATOM     10  C   UNL     1      -8.138  -6.515   1.372  0.00  0.00    +0.000 A 
BRANCH   8  11
ATOM     11  O   UNL     1     -10.074  -5.291   4.220  0.00  0.00    +0.000 OA
ATOM     12  C   UNL     1     -10.793  -4.210   3.658  0.00  0.00    +0.000 C 
ENDBRANCH   8  11
ENDBRANCH   4   5
ENDBRANCH   1   3
BRANCH   1  13
ATOM     13  O   UNL     1      -3.651  -7.163  -1.183  0.00  0.00    +0.000 OA
BRANCH  13  14
ATOM     14  C   UNL     1      -3.843  -7.114  -2.487  0.00  0.00    +0.000 C 
BRANCH  14  15
ATOM     15  C   UNL     1      -4.812  -8.201  -2.914  0.00  0.00    +0.000 C 
ATOM     16  C   UNL     1      -4.169  -9.572  -3.094  0.00  0.00    +0.000 C 
ENDBRANCH  14  15
BRANCH  14  17
ATOM     17  C   UNL     1      -4.356  -5.754  -2.931  0.00  0.00    +0.000 C 
BRANCH  17  18
ATOM     18  C   UNL     1      -5.844  -5.623  -2.963  0.00  0.00    +0.000 C 
BRANCH  18  20
ATOM     19  C   UNL     1      -7.871  -4.696  -1.833  0.00  0.00    +0.000 C 
ATOM     20  C   UNL     1      -6.405  -5.047  -1.689  0.00  0.00    +0.000 C 
ENDBRANCH  18  20
ENDBRANCH  17  18
ENDBRANCH  14  17
ENDBRANCH  13  14
ENDBRANCH   1  13
TORSDOF 9
ENDMDL
MODEL 4
REMARK VINA RESULT:      -3.5      3.002      4.794
REMARK  Name = s3_orig_f12_ligand
REMARK  12 active torsions:
REMARK  status: ('A' for Active; 'I' for Inactive)
REMARK    1  A    between atoms: C_1  and  C_2
REMARK    2  A    between atoms: C_2  and  C_3
REMARK    3  A    between atoms: C_3  and  C_4
REMARK    4  A    between atoms: C_4  and  C_5
REMARK    5  A    between atoms: C_5  and  C_6
REMARK    6  A    between atoms: C_5  and  O_8
REMARK    7  A    between atoms: C_6  and  C_7
REMARK    8  A    between atoms: O_8  and  C_9
REMARK    9  A    between atoms: C_9  and  C_11
REMARK   10  A    between atoms: C_12  and  C_13
REMARK   11  A    between atoms: C_16  and  O_17
REMARK   12  A    between atoms: O_17  and  C_18
REMARK                            x       y       z     vdW  Elec       q    Type
REMARK                         _______ _______ _______ _____ _____    ______ ____
ROOT
ATOM      1  C   UNL     1       7.094   6.994   4.796  0.00  0.00    +0.000 C 
ATOM      2  O   UNL     1       8.124   6.690   4.251  0.00  0.00    +0.000 OA
ENDROOT
BRANCH   1   3
ATOM      3  C   UNL     1       6.629   6.422   6.080  0.00  0.00    +0.000 C 
ATOM      4  C   UNL     1       5.970   5.267   6.140  0.00  0.00    +0.000 C 
BRANCH   4   5
ATOM      5  C   UNL     1       5.396   4.694   7.383  0.00  0.00    +0.000 A 
ATOM      6  C   UNL     1       4.889   3.404   7.363  0.00  0.00    +0.000 A 
ATOM      7  C   UNL     1       4.273   2.870   8.490  0.00  0.00    +0.000 A 
ATOM      8  C   UNL     1       4.207   3.589   9.665  0.00  0.00    +0.000 A 
ATOM      9  C   UNL     1       4.757   4.844   9.696  0.00  0.00    +0.000 A 
ATOM     10  C   UNL     1       5.348   5.396   8.560  0.00  0.00    +0.000 A 
BRANCH   8  11
ATOM     11  O   UNL     1       3.620   3.094  10.811  0.00  0.00    +0.000 OA
ATOM     12  C   UNL     1       2.225   3.271  10.964  0.00  0.00    +0.000 C 
ENDBRANCH   8  11
ENDBRANCH   4   5
ENDBRANCH   1   3
BRANCH   1  13
ATOM     13  O   UNL     1       6.353   7.814   4.235  0.00  0.00    +0.000 OA
BRANCH  13  14
ATOM     14  C   UNL     1       5.532   8.813   3.977  0.00  0.00    +0.000 C 
BRANCH  14  15
ATOM     15  C   UNL     1       6.307  10.112   3.865  0.00  0.00    +0.000 C 
ATOM     16  C   UNL     1       7.368  10.111   2.768  0.00  0.00    +0.000 C 
ENDBRANCH  14  15
BRANCH  14  17
ATOM     17  C   UNL     1       4.732   8.572   2.707  0.00  0.00    +0.000 C 
BRANCH  17  18
ATOM     18  C   UNL     1       3.259   8.430   2.909  0.00  0.00    +0.000 C 
BRANCH  18  20
ATOM     19  C   UNL     1       1.358   9.142   4.368  0.00  0.00    +0.000 C 
ATOM     20  C   UNL     1       2.827   8.779   4.310  0.00  0.00    +0.000 C 
ENDBRANCH  18  20
ENDBRANCH  17  18
ENDBRANCH  14  17
ENDBRANCH  13  14
ENDBRANCH   1  13
TORSDOF 9
ENDMDL
MODEL 5
REMARK VINA RESULT:      -3.5      2.913      3.747
REMARK  Name = s3_orig_f12_ligand
REMARK  12 active torsions:
REMARK  status: ('A' for Active; 'I' for Inactive)
REMARK    1  A    between atoms: C_1  and  C_2
REMARK    2  A    between atoms: C_2  and  C_3
REMARK    3  A    between atoms: C_3  and  C_4
REMARK    4  A    between atoms: C_4  and  C_5
REMARK    5  A    between atoms: C_5  and  C_6
REMARK    6  A    between atoms: C_5  and  O_8
REMARK    7  A    between atoms: C_6  and  C_7
REMARK    8  A    between atoms: O_8  and  C_9
REMARK    9  A    between atoms: C_9  and  C_11
REMARK   10  A    between atoms: C_12  and  C_13
REMARK   11  A    between atoms: C_16  and  O_17
REMARK   12  A    between atoms: O_17  and  C_18
REMARK                            x       y       z     vdW  Elec       q    Type
REMARK                         _______ _______ _______ _____ _____    ______ ____
ROOT
ATOM      1  C   UNL     1       6.093   7.447   4.343  0.00  0.00    +0.000 C 
ATOM      2  O   UNL     1       7.234   7.385   3.963  0.00  0.00    +0.000 OA
ENDROOT
BRANCH   1   3
ATOM      3  C   UNL     1       5.484   6.507   5.311  0.00  0.00    +0.000 C 
ATOM      4  C   UNL     1       5.974   6.343   6.537  0.00  0.00    +0.000 C 
BRANCH   4   5
ATOM      5  C   UNL     1       5.468   5.348   7.516  0.00  0.00    +0.000 A 
ATOM      6  C   UNL     1       5.271   4.037   7.110  0.00  0.00    +0.000 A 
ATOM      7  C   UNL     1       4.722   3.103   7.982  0.00  0.00    +0.000 A 
ATOM      8  C   UNL     1       4.419   3.445   9.283  0.00  0.00    +0.000 A 
ATOM      9  C   UNL     1       4.664   4.728   9.695  0.00  0.00    +0.000 A 
ATOM     10  C   UNL     1       5.185   5.678   8.817  0.00  0.00    +0.000 A 
BRANCH   8  11
ATOM     11  O   UNL     1       3.888   2.548  10.186  0.00  0.00    +0.000 OA
ATOM     12  C   UNL     1       2.823   1.726   9.748  0.00  0.00    +0.000 C 
ENDBRANCH   8  11
ENDBRANCH   4   5
ENDBRANCH   1   3
BRANCH   1  13
ATOM     13  O   UNL     1       5.365   8.333   3.872  0.00  0.00    +0.000 OA
BRANCH  13  14
ATOM     14  C   UNL     1       4.388   9.193   3.661  0.00  0.00    +0.000 C 
BRANCH  14  15
ATOM     15  C   UNL     1       3.119   8.458   3.271  0.00  0.00    +0.000 C 
ATOM     16  C   UNL     1       1.890   8.869   4.074  0.00  0.00    +0.000 C 
ENDBRANCH  14  15
BRANCH  14  17
ATOM     17  C   UNL     1       4.131  10.065   4.879  0.00  0.00    +0.000 C 
BRANCH  17  18
ATOM     18  C   UNL     1       5.352  10.435   5.656  0.00  0.00    +0.000 C 
BRANCH  18  20
ATOM     19  C   UNL     1       3.978   9.297   7.406  0.00  0.00    +0.000 C 
ATOM     20  C   UNL     1       5.305   9.950   7.082  0.00  0.00    +0.000 C 
ENDBRANCH  18  20
ENDBRANCH  17  18
ENDBRANCH  14  17
ENDBRANCH  13  14
ENDBRANCH   1  13
TORSDOF 9
ENDMDL
MODEL 6
REMARK VINA RESULT:      -3.5     14.769     16.449
REMARK  Name = s3_orig_f12_ligand
REMARK  12 active torsions:
REMARK  status: ('A' for Active; 'I' for Inactive)
REMARK    1  A    between atoms: C_1  and  C_2
REMARK    2  A    between atoms: C_2  and  C_3
REMARK    3  A    between atoms: C_3  and  C_4
REMARK    4  A    between atoms: C_4  and  C_5
REMARK    5  A    between atoms: C_5  and  C_6
REMARK    6  A    between atoms: C_5  and  O_8
REMARK    7  A    between atoms: C_6  and  C_7
REMARK    8  A    between atoms: O_8  and  C_9
REMARK    9  A    between atoms: C_9  and  C_11
REMARK   10  A    between atoms: C_12  and  C_13
REMARK   11  A    between atoms: C_16  and  O_17
REMARK   12  A    between atoms: O_17  and  C_18
REMARK                            x       y       z     vdW  Elec       q    Type
REMARK                         _______ _______ _______ _____ _____    ______ ____
ROOT
ATOM      1  C   UNL     1      -4.946  -1.695   8.788  0.00  0.00    +0.000 C 
ATOM      2  O   UNL     1      -4.588  -0.562   8.986  0.00  0.00    +0.000 OA
ENDROOT
BRANCH   1   3
ATOM      3  C   UNL     1      -4.219  -2.895   9.262  0.00  0.00    +0.000 C 
ATOM      4  C   UNL     1      -3.695  -3.780   8.418  0.00  0.00    +0.000 C 
BRANCH   4   5
ATOM      5  C   UNL     1      -3.043  -5.048   8.833  0.00  0.00    +0.000 A 
ATOM      6  C   UNL     1      -2.649  -5.956   7.863  0.00  0.00    +0.000 A 
ATOM      7  C   UNL     1      -2.110  -7.186   8.225  0.00  0.00    +0.000 A 
ATOM      8  C   UNL     1      -1.900  -7.501   9.551  0.00  0.00    +0.000 A 
ATOM      9  C   UNL     1      -2.242  -6.579  10.504  0.00  0.00    +0.000 A 
ATOM     10  C   UNL     1      -2.812  -5.357  10.149  0.00  0.00    +0.000 A 
BRANCH   8  11
ATOM     11  O   UNL     1      -1.353  -8.702   9.955  0.00  0.00    +0.000 OA
ATOM     12  C   UNL     1      -0.302  -9.240   9.175  0.00  0.00    +0.000 C 
ENDBRANCH   8  11
ENDBRANCH   4   5
ENDBRANCH   1   3
BRANCH   1  13
ATOM     13  O   UNL     1      -5.971  -1.877   8.115  0.00  0.00    +0.000 OA
BRANCH  13  14
ATOM     14  C   UNL     1      -7.116  -2.332   7.646  0.00  0.00    +0.000 C 
BRANCH  14  15
ATOM     15  C   UNL     1      -7.888  -1.213   6.973  0.00  0.00    +0.000 C 
ATOM     16  C   UNL     1      -9.401  -1.318   7.132  0.00  0.00    +0.000 C 
ENDBRANCH  14  15
BRANCH  14  17
ATOM     17  C   UNL     1      -6.909  -3.481   6.672  0.00  0.00    +0.000 C 
BRANCH  17  18
ATOM     18  C   UNL     1      -7.036  -4.843   7.272  0.00  0.00    +0.000 C 
BRANCH  18  20
ATOM     19  C   UNL     1      -6.696  -5.712   9.590  0.00  0.00    +0.000 C 
ATOM     20  C   UNL     1      -7.521  -4.809   8.698  0.00  0.00    +0.000 C 
ENDBRANCH  18  20
ENDBRANCH  17  18
ENDBRANCH  14  17
ENDBRANCH  13  14
ENDBRANCH   1  13
TORSDOF 9
ENDMDL
MODEL 7
REMARK VINA RESULT:      -3.5      1.810      3.088
REMARK  Name = s3_orig_f12_ligand
REMARK  12 active torsions:
REMARK  status: ('A' for Active; 'I' for Inactive)
REMARK    1  A    between atoms: C_1  and  C_2
REMARK    2  A    between atoms: C_2  and  C_3
REMARK    3  A    between atoms: C_3  and  C_4
REMARK    4  A    between atoms: C_4  and  C_5
REMARK    5  A    between atoms: C_5  and  C_6
REMARK    6  A    between atoms: C_5  and  O_8
REMARK    7  A    between atoms: C_6  and  C_7
REMARK    8  A    between atoms: O_8  and  C_9
REMARK    9  A    between atoms: C_9  and  C_11
REMARK   10  A    between atoms: C_12  and  C_13
REMARK   11  A    between atoms: C_16  and  O_17
REMARK   12  A    between atoms: O_17  and  C_18
REMARK                            x       y       z     vdW  Elec       q    Type
REMARK                         _______ _______ _______ _____ _____    ______ ____
ROOT
ATOM      1  C   UNL     1       3.820   9.417   7.764  0.00  0.00    +0.000 C 
ATOM      2  O   UNL     1       3.244   9.783   8.756  0.00  0.00    +0.000 OA
ENDROOT
BRANCH   1   3
ATOM      3  C   UNL     1       4.764   8.276   7.722  0.00  0.00    +0.000 C 
ATOM      4  C   UNL     1       5.062   7.651   6.585  0.00  0.00    +0.000 C 
BRANCH   4   5
ATOM      5  C   UNL     1       5.922   6.445   6.494  0.00  0.00    +0.000 A 
ATOM      6  C   UNL     1       7.166   6.543   5.892  0.00  0.00    +0.000 A 
ATOM      7  C   UNL     1       7.959   5.413   5.720  0.00  0.00    +0.000 A 
ATOM      8  C   UNL     1       7.550   4.186   6.197  0.00  0.00    +0.000 A 
ATOM      9  C   UNL     1       6.342   4.103   6.839  0.00  0.00    +0.000 A 
ATOM     10  C   UNL     1       5.529   5.226   6.986  0.00  0.00    +0.000 A 
BRANCH   8  11
ATOM     11  O   UNL     1       8.310   3.042   6.064  0.00  0.00    +0.000 OA
ATOM     12  C   UNL     1       9.225   2.737   7.099  0.00  0.00    +0.000 C 
ENDBRANCH   8  11
ENDBRANCH   4   5
ENDBRANCH   1   3
BRANCH   1  13
ATOM     13  O   UNL     1       3.643  10.052   6.715  0.00  0.00    +0.000 OA
BRANCH  13  14
ATOM     14  C   UNL     1       3.590  10.998   5.798  0.00  0.00    +0.000 C 
BRANCH  14  15
ATOM     15  C   UNL     1       4.821  11.882   5.887  0.00  0.00    +0.000 C 
ATOM     16  C   UNL     1       5.959  11.456   4.966  0.00  0.00    +0.000 C 
ENDBRANCH  14  15
BRANCH  14  17
ATOM     17  C   UNL     1       3.463  10.421   4.398  0.00  0.00    +0.000 C 
BRANCH  17  18
ATOM     18  C   UNL     1       2.586   9.217   4.292  0.00  0.00    +0.000 C 
BRANCH  18  20
ATOM     19  C   UNL     1       4.579   8.502   2.963  0.00  0.00    +0.000 C 
ATOM     20  C   UNL     1       3.208   8.114   3.475  0.00  0.00    +0.000 C 
ENDBRANCH  18  20
ENDBRANCH  17  18
ENDBRANCH  14  17
ENDBRANCH  13  14
ENDBRANCH   1  13
TORSDOF 9
ENDMDL
MODEL 8
REMARK VINA RESULT:      -3.4      3.582      6.696
REMARK  Name = s3_orig_f12_ligand
REMARK  12 active torsions:
REMARK  status: ('A' for Active; 'I' for Inactive)
REMARK    1  A    between atoms: C_1  and  C_2
REMARK    2  A    between atoms: C_2  and  C_3
REMARK    3  A    between atoms: C_3  and  C_4
REMARK    4  A    between atoms: C_4  and  C_5
REMARK    5  A    between atoms: C_5  and  C_6
REMARK    6  A    between atoms: C_5  and  O_8
REMARK    7  A    between atoms: C_6  and  C_7
REMARK    8  A    between atoms: O_8  and  C_9
REMARK    9  A    between atoms: C_9  and  C_11
REMARK   10  A    between atoms: C_12  and  C_13
REMARK   11  A    between atoms: C_16  and  O_17
REMARK   12  A    between atoms: O_17  and  C_18
REMARK                            x       y       z     vdW  Elec       q    Type
REMARK                         _______ _______ _______ _____ _____    ______ ____
ROOT
ATOM      1  C   UNL     1      -0.694  10.519   5.599  0.00  0.00    +0.000 C 
ATOM      2  O   UNL     1      -1.487  11.364   5.270  0.00  0.00    +0.000 OA
ENDROOT
BRANCH   1   3
ATOM      3  C   UNL     1       0.717  10.481   5.151  0.00  0.00    +0.000 C 
ATOM      4  C   UNL     1       1.251   9.396   4.595  0.00  0.00    +0.000 C 
BRANCH   4   5
ATOM      5  C   UNL     1       2.680   9.265   4.217  0.00  0.00    +0.000 A 
ATOM      6  C   UNL     1       3.633  10.002   4.903  0.00  0.00    +0.000 A 
ATOM      7  C   UNL     1       4.969   9.961   4.518  0.00  0.00    +0.000 A 
ATOM      8  C   UNL     1       5.381   9.143   3.487  0.00  0.00    +0.000 A 
ATOM      9  C   UNL     1       4.444   8.376   2.847  0.00  0.00    +0.000 A 
ATOM     10  C   UNL     1       3.098   8.436   3.207  0.00  0.00    +0.000 A 
BRANCH   8  11
ATOM     11  O   UNL     1       6.697   9.058   3.082  0.00  0.00    +0.000 OA
ATOM     12  C   UNL     1       7.557   8.209   3.818  0.00  0.00    +0.000 C 
ENDBRANCH   8  11
ENDBRANCH   4   5
ENDBRANCH   1   3
BRANCH   1  13
ATOM     13  O   UNL     1      -1.086   9.600   6.332  0.00  0.00    +0.000 OA
BRANCH  13  14
ATOM     14  C   UNL     1      -1.762   8.865   7.192  0.00  0.00    +0.000 C 
BRANCH  14  15
ATOM     15  C   UNL     1      -2.756   9.726   7.950  0.00  0.00    +0.000 C 
ATOM     16  C   UNL     1      -2.326  10.064   9.374  0.00  0.00    +0.000 C 
ENDBRANCH  14  15
BRANCH  14  17
ATOM     17  C   UNL     1      -2.483   7.716   6.508  0.00  0.00    +0.000 C 
BRANCH  17  18
ATOM     18  C   UNL     1      -3.152   6.753   7.433  0.00  0.00    +0.000 C 
BRANCH  18  20
ATOM     19  C   UNL     1      -2.523   6.328   9.815  0.00  0.00    +0.000 C 
ATOM     20  C   UNL     1      -2.183   6.069   8.362  0.00  0.00    +0.000 C 
ENDBRANCH  18  20
ENDBRANCH  17  18
ENDBRANCH  14  17
ENDBRANCH  13  14
ENDBRANCH   1  13
TORSDOF 9
ENDMDL
MODEL 9
REMARK VINA RESULT:      -3.4      2.362      4.048
REMARK  Name = s3_orig_f12_ligand
REMARK  12 active torsions:
REMARK  status: ('A' for Active; 'I' for Inactive)
REMARK    1  A    between atoms: C_1  and  C_2
REMARK    2  A    between atoms: C_2  and  C_3
REMARK    3  A    between atoms: C_3  and  C_4
REMARK    4  A    between atoms: C_4  and  C_5
REMARK    5  A    between atoms: C_5  and  C_6
REMARK    6  A    between atoms: C_5  and  O_8
REMARK    7  A    between atoms: C_6  and  C_7
REMARK    8  A    between atoms: O_8  and  C_9
REMARK    9  A    between atoms: C_9  and  C_11
REMARK   10  A    between atoms: C_12  and  C_13
REMARK   11  A    between atoms: C_16  and  O_17
REMARK   12  A    between atoms: O_17  and  C_18
REMARK                            x       y       z     vdW  Elec       q    Type
REMARK                         _______ _______ _______ _____ _____    ______ ____
ROOT
ATOM      1  C   UNL     1       4.489   9.511   6.349  0.00  0.00    +0.000 C 
ATOM      2  O   UNL     1       4.878  10.556   6.803  0.00  0.00    +0.000 OA
ENDROOT
BRANCH   1   3
ATOM      3  C   UNL     1       4.497   8.226   7.086  0.00  0.00    +0.000 C 
ATOM      4  C   UNL     1       5.399   7.279   6.842  0.00  0.00    +0.000 C 
BRANCH   4   5
ATOM      5  C   UNL     1       5.399   5.938   7.477  0.00  0.00    +0.000 A 
ATOM      6  C   UNL     1       5.544   4.811   6.683  0.00  0.00    +0.000 A 
ATOM      7  C   UNL     1       5.467   3.540   7.241  0.00  0.00    +0.000 A 
ATOM      8  C   UNL     1       5.304   3.375   8.600  0.00  0.00    +0.000 A 
ATOM      9  C   UNL     1       5.214   4.492   9.389  0.00  0.00    +0.000 A 
ATOM     10  C   UNL     1       5.259   5.769   8.831  0.00  0.00    +0.000 A 
BRANCH   8  11
ATOM     11  O   UNL     1       5.238   2.133   9.199  0.00  0.00    +0.000 OA
ATOM     12  C   UNL     1       6.449   1.421   9.369  0.00  0.00    +0.000 C 
ENDBRANCH   8  11
ENDBRANCH   4   5
ENDBRANCH   1   3
BRANCH   1  13
ATOM     13  O   UNL     1       4.085   9.494   5.177  0.00  0.00    +0.000 OA
BRANCH  13  14
ATOM     14  C   UNL     1       3.333   9.438   4.096  0.00  0.00    +0.000 C 
BRANCH  14  15
ATOM     15  C   UNL     1       3.967   8.525   3.064  0.00  0.00    +0.000 C 
ATOM     16  C   UNL     1       5.454   8.778   2.839  0.00  0.00    +0.000 C 
ENDBRANCH  14  15
BRANCH  14  17
ATOM     17  C   UNL     1       1.923   8.967   4.413  0.00  0.00    +0.000 C 
BRANCH  17  18
ATOM     18  C   UNL     1       0.965  10.052   4.780  0.00  0.00    +0.000 C 
BRANCH  18  20
ATOM     19  C   UNL     1       1.207  10.845   7.138  0.00  0.00    +0.000 C 
ATOM     20  C   UNL     1       0.459   9.928   6.194  0.00  0.00    +0.000 C 
ENDBRANCH  18  20
ENDBRANCH  17  18
ENDBRANCH  14  17
ENDBRANCH  13  14
ENDBRANCH   1  13
TORSDOF 9
ENDMDL
