REMARK  Name = bgox31_5_ligand
REMARK  5 active torsions:
REMARK  status: ('A' for Active; 'I' for Inactive)
REMARK    1  A    between atoms: C_1  and  O_2
REMARK    2  A    between atoms: O_2  and  C_3
REMARK    3  A    between atoms: C_6  and  C_7
REMARK    4  A    between atoms: C_7  and  C_9
REMARK    5  A    between atoms: C_15  and  O_16
REMARK                            x       y       z     vdW  Elec       q    Type
REMARK                         _______ _______ _______ _____ _____    ______ ____
ROOT
ATOM      1  C   UNL     1       9.219   2.401   0.049  0.00  0.00    +0.000 A 
ATOM      2  C   UNL     1       8.319   1.444   0.397  0.00  0.00    +0.000 A 
ATOM      3  C   UNL     1       7.634   0.738  -0.616  0.00  0.00    +0.000 A 
ATOM      4  C   UNL     1       7.826   0.987  -1.959  0.00  0.00    +0.000 A 
ATOM      5  C   UNL     1       8.739   1.977  -2.314  0.00  0.00    +0.000 A 
ATOM      6  C   UNL     1       9.436   2.696  -1.306  0.00  0.00    +0.000 A 
ENDROOT
BRANCH   1   8
ATOM      7  C   UNL     1      10.555   4.285   1.050  0.00  0.00    +0.000 C 
ATOM      8  O   UNL     1       9.824   3.033   1.193  0.00  0.00    +0.000 OA
ENDBRANCH   1   8
BRANCH   4   9
ATOM      9  C   UNL     1       7.075   0.241  -2.940  0.00  0.00    +0.000 C 
ATOM     10  O   UNL     1       6.944   0.717  -4.075  0.00  0.00    +0.000 OA
BRANCH   9  11
ATOM     11  C   UNL     1       6.378  -1.027  -2.556  0.00  0.00    +0.000 A 
ATOM     12  C   UNL     1       5.023  -1.256  -2.722  0.00  0.00    +0.000 A 
ATOM     13  C   UNL     1       4.425  -2.485  -2.330  0.00  0.00    +0.000 A 
ATOM     14  C   UNL     1       5.153  -3.501  -1.787  0.00  0.00    +0.000 A 
ATOM     15  C   UNL     1       6.506  -3.323  -1.628  0.00  0.00    +0.000 A 
ATOM     16  C   UNL     1       7.087  -2.083  -1.988  0.00  0.00    +0.000 A 
ENDBRANCH   9  11
ENDBRANCH   4   9
BRANCH   5  17
ATOM     17  O   UNL     1       8.962   2.240  -3.625  0.00  0.00    +0.000 OA
ATOM     18  H   UNL     1       9.609   2.942  -3.885  0.00  0.00    +0.000 HD
ENDBRANCH   5  17
TORSDOF 4
