MODEL 1
REMARK VINA RESULT:      -5.0      0.000      0.000
REMARK  Name = bgox31_5_ligand
REMARK  5 active torsions:
REMARK  status: ('A' for Active; 'I' for Inactive)
REMARK    1  A    between atoms: C_1  and  O_2
REMARK    2  A    between atoms: O_2  and  C_3
REMARK    3  A    between atoms: C_6  and  C_7
REMARK    4  A    between atoms: C_7  and  C_9
REMARK    5  A    between atoms: C_15  and  O_16
REMARK                            x       y       z     vdW  Elec       q    Type
REMARK                         _______ _______ _______ _____ _____    ______ ____
ROOT
ATOM      1  C   UNL     1       5.448  -5.618  -7.282  0.00  0.00    +0.000 A 
ATOM      2  C   UNL     1       5.202  -4.290  -7.129  0.00  0.00    +0.000 A 
ATOM      3  C   UNL     1       5.795  -3.596  -6.052  0.00  0.00    +0.000 A 
ATOM      4  C   UNL     1       6.611  -4.212  -5.127  0.00  0.00    +0.000 A 
ATOM      5  C   UNL     1       6.852  -5.576  -5.277  0.00  0.00    +0.000 A 
ATOM      6  C   UNL     1       6.262  -6.288  -6.355  0.00  0.00    +0.000 A 
ENDROOT
BRANCH   1   8
ATOM      7  C   UNL     1       4.651  -5.429  -9.662  0.00  0.00    +0.000 C 
ATOM      8  O   UNL     1       4.766  -6.180  -8.419  0.00  0.00    +0.000 OA
ENDBRANCH   1   8
BRANCH   4   9
ATOM      9  C   UNL     1       7.166  -3.445  -4.038  0.00  0.00    +0.000 C 
ATOM     10  O   UNL     1       8.373  -3.558  -3.786  0.00  0.00    +0.000 OA
BRANCH   9  11
ATOM     11  C   UNL     1       6.276  -2.616  -3.165  0.00  0.00    +0.000 A 
ATOM     12  C   UNL     1       5.091  -3.063  -2.607  0.00  0.00    +0.000 A 
ATOM     13  C   UNL     1       4.291  -2.218  -1.789  0.00  0.00    +0.000 A 
ATOM     14  C   UNL     1       4.655  -0.937  -1.502  0.00  0.00    +0.000 A 
ATOM     15  C   UNL     1       5.837  -0.462  -2.017  0.00  0.00    +0.000 A 
ATOM     16  C   UNL     1       6.609  -1.298  -2.859  0.00  0.00    +0.000 A 
ENDBRANCH   9  11
ENDBRANCH   4   9
BRANCH   5  17
ATOM     17  O   UNL     1       7.659  -6.212  -4.392  0.00  0.00    +0.000 OA
ATOM     18  H   UNL     1       7.342  -6.387  -3.472  0.00  0.00    +0.000 HD
ENDBRANCH   5  17
TORSDOF 4
ENDMDL
MODEL 2
REMARK VINA RESULT:      -5.0      3.455      6.368
REMARK  Name = bgox31_5_ligand
REMARK  5 active torsions:
REMARK  status: ('A' for Active; 'I' for Inactive)
REMARK    1  A    between atoms: C_1  and  O_2
REMARK    2  A    between atoms: O_2  and  C_3
REMARK    3  A    between atoms: C_6  and  C_7
REMARK    4  A    between atoms: C_7  and  C_9
REMARK    5  A    between atoms: C_15  and  O_16
REMARK                            x       y       z     vdW  Elec       q    Type
REMARK                         _______ _______ _______ _____ _____    ______ ____
ROOT
ATOM      1  C   UNL     1       6.482   0.581  -1.789  0.00  0.00    +0.000 A 
ATOM      2  C   UNL     1       7.485  -0.197  -2.273  0.00  0.00    +0.000 A 
ATOM      3  C   UNL     1       7.221  -1.547  -2.590  0.00  0.00    +0.000 A 
ATOM      4  C   UNL     1       5.981  -2.126  -2.416  0.00  0.00    +0.000 A 
ATOM      5  C   UNL     1       4.957  -1.330  -1.907  0.00  0.00    +0.000 A 
ATOM      6  C   UNL     1       5.207   0.030  -1.583  0.00  0.00    +0.000 A 
ENDROOT
BRANCH   1   8
ATOM      7  C   UNL     1       7.112   2.884  -2.587  0.00  0.00    +0.000 C 
ATOM      8  O   UNL     1       6.913   1.926  -1.507  0.00  0.00    +0.000 OA
ENDBRANCH   1   8
BRANCH   4   9
ATOM      9  C   UNL     1       5.788  -3.518  -2.741  0.00  0.00    +0.000 C 
ATOM     10  O   UNL     1       5.058  -3.809  -3.697  0.00  0.00    +0.000 OA
BRANCH   9  11
ATOM     11  C   UNL     1       6.371  -4.587  -1.870  0.00  0.00    +0.000 A 
ATOM     12  C   UNL     1       7.012  -4.352  -0.666  0.00  0.00    +0.000 A 
ATOM     13  C   UNL     1       7.548  -5.417   0.109  0.00  0.00    +0.000 A 
ATOM     14  C   UNL     1       7.446  -6.718  -0.283  0.00  0.00    +0.000 A 
ATOM     15  C   UNL     1       6.795  -6.996  -1.461  0.00  0.00    +0.000 A 
ATOM     16  C   UNL     1       6.296  -5.927  -2.244  0.00  0.00    +0.000 A 
ENDBRANCH   9  11
ENDBRANCH   4   9
BRANCH   5  17
ATOM     17  O   UNL     1       3.722  -1.862  -1.734  0.00  0.00    +0.000 OA
ATOM     18  H   UNL     1       3.624  -2.822  -1.514  0.00  0.00    +0.000 HD
ENDBRANCH   5  17
TORSDOF 4
ENDMDL
MODEL 3
REMARK VINA RESULT:      -4.8      2.465      6.466
REMARK  Name = bgox31_5_ligand
REMARK  5 active torsions:
REMARK  status: ('A' for Active; 'I' for Inactive)
REMARK    1  A    between atoms: C_1  and  O_2
REMARK    2  A    between atoms: O_2  and  C_3
REMARK    3  A    between atoms: C_6  and  C_7
REMARK    4  A    between atoms: C_7  and  C_9
REMARK    5  A    between atoms: C_15  and  O_16
REMARK                            x       y       z     vdW  Elec       q    Type
REMARK                         _______ _______ _______ _____ _____    ______ ____
ROOT
ATOM      1  C   UNL     1       6.829   0.073  -1.511  0.00  0.00    +0.000 A 
ATOM      2  C   UNL     1       7.632  -0.800  -2.175  0.00  0.00    +0.000 A 
ATOM      3  C   UNL     1       7.071  -1.971  -2.730  0.00  0.00    +0.000 A 
ATOM      4  C   UNL     1       5.732  -2.282  -2.617  0.00  0.00    +0.000 A 
ATOM      5  C   UNL     1       4.912  -1.393  -1.925  0.00  0.00    +0.000 A 
ATOM      6  C   UNL     1       5.463  -0.211  -1.360  0.00  0.00    +0.000 A 
ENDROOT
BRANCH   1   8
ATOM      7  C   UNL     1       7.368   2.530  -1.581  0.00  0.00    +0.000 C 
ATOM      8  O   UNL     1       7.552   1.208  -0.998  0.00  0.00    +0.000 OA
ENDBRANCH   1   8
BRANCH   4   9
ATOM      9  C   UNL     1       5.230  -3.507  -3.192  0.00  0.00    +0.000 C 
ATOM     10  O   UNL     1       4.321  -4.109  -2.606  0.00  0.00    +0.000 OA
BRANCH   9  11
ATOM     11  C   UNL     1       5.875  -4.092  -4.410  0.00  0.00    +0.000 A 
ATOM     12  C   UNL     1       5.741  -3.579  -5.688  0.00  0.00    +0.000 A 
ATOM     13  C   UNL     1       6.379  -4.188  -6.803  0.00  0.00    +0.000 A 
ATOM     14  C   UNL     1       7.164  -5.294  -6.669  0.00  0.00    +0.000 A 
ATOM     15  C   UNL     1       7.343  -5.820  -5.413  0.00  0.00    +0.000 A 
ATOM     16  C   UNL     1       6.675  -5.228  -4.314  0.00  0.00    +0.000 A 
ENDBRANCH   9  11
ENDBRANCH   4   9
BRANCH   5  17
ATOM     17  O   UNL     1       3.589  -1.661  -1.804  0.00  0.00    +0.000 OA
ATOM     18  H   UNL     1       3.148  -1.583  -0.922  0.00  0.00    +0.000 HD
ENDBRANCH   5  17
TORSDOF 4
ENDMDL
MODEL 4
REMARK VINA RESULT:      -4.6      2.668      4.108
REMARK  Name = bgox31_5_ligand
REMARK  5 active torsions:
REMARK  status: ('A' for Active; 'I' for Inactive)
REMARK    1  A    between atoms: C_1  and  O_2
REMARK    2  A    between atoms: O_2  and  C_3
REMARK    3  A    between atoms: C_6  and  C_7
REMARK    4  A    between atoms: C_7  and  C_9
REMARK    5  A    between atoms: C_15  and  O_16
REMARK                            x       y       z     vdW  Elec       q    Type
REMARK                         _______ _______ _______ _____ _____    ______ ____
ROOT
ATOM      1  C   UNL     1       7.404  -6.191  -2.861  0.00  0.00    +0.000 A 
ATOM      2  C   UNL     1       7.420  -5.573  -1.651  0.00  0.00    +0.000 A 
ATOM      3  C   UNL     1       6.687  -4.379  -1.475  0.00  0.00    +0.000 A 
ATOM      4  C   UNL     1       5.958  -3.795  -2.490  0.00  0.00    +0.000 A 
ATOM      5  C   UNL     1       5.954  -4.422  -3.733  0.00  0.00    +0.000 A 
ATOM      6  C   UNL     1       6.687  -5.624  -3.926  0.00  0.00    +0.000 A 
ENDROOT
BRANCH   1   8
ATOM      7  C   UNL     1       7.994  -8.406  -3.900  0.00  0.00    +0.000 C 
ATOM      8  O   UNL     1       8.206  -7.388  -2.881  0.00  0.00    +0.000 OA
ENDBRANCH   1   8
BRANCH   4   9
ATOM      9  C   UNL     1       5.249  -2.561  -2.245  0.00  0.00    +0.000 C 
ATOM     10  O   UNL     1       4.017  -2.596  -2.141  0.00  0.00    +0.000 OA
BRANCH   9  11
ATOM     11  C   UNL     1       5.983  -1.257  -2.227  0.00  0.00    +0.000 A 
ATOM     12  C   UNL     1       5.600  -0.153  -1.485  0.00  0.00    +0.000 A 
ATOM     13  C   UNL     1       6.343   1.058  -1.519  0.00  0.00    +0.000 A 
ATOM     14  C   UNL     1       7.473   1.191  -2.269  0.00  0.00    +0.000 A 
ATOM     15  C   UNL     1       7.902   0.110  -3.002  0.00  0.00    +0.000 A 
ATOM     16  C   UNL     1       7.136  -1.080  -2.990  0.00  0.00    +0.000 A 
ENDBRANCH   9  11
ENDBRANCH   4   9
BRANCH   5  17
ATOM     17  O   UNL     1       5.238  -3.883  -4.751  0.00  0.00    +0.000 OA
ATOM     18  H   UNL     1       4.277  -4.095  -4.845  0.00  0.00    +0.000 HD
ENDBRANCH   5  17
TORSDOF 4
ENDMDL
MODEL 5
REMARK VINA RESULT:      -4.6      1.831      2.724
REMARK  Name = bgox31_5_ligand
REMARK  5 active torsions:
REMARK  status: ('A' for Active; 'I' for Inactive)
REMARK    1  A    between atoms: C_1  and  O_2
REMARK    2  A    between atoms: O_2  and  C_3
REMARK    3  A    between atoms: C_6  and  C_7
REMARK    4  A    between atoms: C_7  and  C_9
REMARK    5  A    between atoms: C_15  and  O_16
REMARK                            x       y       z     vdW  Elec       q    Type
REMARK                         _______ _______ _______ _____ _____    ______ ____
ROOT
ATOM      1  C   UNL     1       6.719  -5.725  -5.490  0.00  0.00    +0.000 A 
ATOM      2  C   UNL     1       6.098  -4.603  -5.941  0.00  0.00    +0.000 A 
ATOM      3  C   UNL     1       5.628  -3.652  -5.009  0.00  0.00    +0.000 A 
ATOM      4  C   UNL     1       5.757  -3.815  -3.646  0.00  0.00    +0.000 A 
ATOM      5  C   UNL     1       6.381  -4.972  -3.185  0.00  0.00    +0.000 A 
ATOM      6  C   UNL     1       6.860  -5.938  -4.110  0.00  0.00    +0.000 A 
ENDROOT
BRANCH   1   8
ATOM      7  C   UNL     1       6.309  -7.736  -6.947  0.00  0.00    +0.000 C 
ATOM      8  O   UNL     1       7.130  -6.597  -6.560  0.00  0.00    +0.000 OA
ENDBRANCH   1   8
BRANCH   4   9
ATOM      9  C   UNL     1       5.233  -2.811  -2.752  0.00  0.00    +0.000 C 
ATOM     10  O   UNL     1       4.131  -3.004  -2.222  0.00  0.00    +0.000 OA
BRANCH   9  11
ATOM     11  C   UNL     1       5.959  -1.516  -2.559  0.00  0.00    +0.000 A 
ATOM     12  C   UNL     1       7.229  -1.252  -3.042  0.00  0.00    +0.000 A 
ATOM     13  C   UNL     1       7.862   0.001  -2.817  0.00  0.00    +0.000 A 
ATOM     14  C   UNL     1       7.249   1.007  -2.131  0.00  0.00    +0.000 A 
ATOM     15  C   UNL     1       5.978   0.793  -1.656  0.00  0.00    +0.000 A 
ATOM     16  C   UNL     1       5.369  -0.470  -1.854  0.00  0.00    +0.000 A 
ENDBRANCH   9  11
ENDBRANCH   4   9
BRANCH   5  17
ATOM     17  O   UNL     1       6.536  -5.160  -1.851  0.00  0.00    +0.000 OA
ATOM     18  H   UNL     1       5.762  -5.053  -1.244  0.00  0.00    +0.000 HD
ENDBRANCH   5  17
TORSDOF 4
ENDMDL
MODEL 6
REMARK VINA RESULT:      -4.6      2.548      4.101
REMARK  Name = bgox31_5_ligand
REMARK  5 active torsions:
REMARK  status: ('A' for Active; 'I' for Inactive)
REMARK    1  A    between atoms: C_1  and  O_2
REMARK    2  A    between atoms: O_2  and  C_3
REMARK    3  A    between atoms: C_6  and  C_7
REMARK    4  A    between atoms: C_7  and  C_9
REMARK    5  A    between atoms: C_15  and  O_16
REMARK                            x       y       z     vdW  Elec       q    Type
REMARK                         _______ _______ _______ _____ _____    ______ ____
ROOT
ATOM      1  C   UNL     1       7.850  -7.423  -2.287  0.00  0.00    +0.000 A 
ATOM      2  C   UNL     1       6.801  -6.868  -1.625  0.00  0.00    +0.000 A 
ATOM      3  C   UNL     1       6.137  -5.758  -2.189  0.00  0.00    +0.000 A 
ATOM      4  C   UNL     1       6.516  -5.192  -3.388  0.00  0.00    +0.000 A 
ATOM      5  C   UNL     1       7.599  -5.754  -4.060  0.00  0.00    +0.000 A 
ATOM      6  C   UNL     1       8.278  -6.872  -3.505  0.00  0.00    +0.000 A 
ENDROOT
BRANCH   1   8
ATOM      7  C   UNL     1       8.917  -9.703  -2.302  0.00  0.00    +0.000 C 
ATOM      8  O   UNL     1       8.424  -8.539  -1.579  0.00  0.00    +0.000 OA
ENDBRANCH   1   8
BRANCH   4   9
ATOM      9  C   UNL     1       5.804  -4.044  -3.895  0.00  0.00    +0.000 C 
ATOM     10  O   UNL     1       5.451  -4.040  -5.081  0.00  0.00    +0.000 OA
BRANCH   9  11
ATOM     11  C   UNL     1       5.598  -2.839  -3.031  0.00  0.00    +0.000 A 
ATOM     12  C   UNL     1       4.515  -2.657  -2.188  0.00  0.00    +0.000 A 
ATOM     13  C   UNL     1       4.379  -1.483  -1.397  0.00  0.00    +0.000 A 
ATOM     14  C   UNL     1       5.311  -0.489  -1.416  0.00  0.00    +0.000 A 
ATOM     15  C   UNL     1       6.414  -0.642  -2.221  0.00  0.00    +0.000 A 
ATOM     16  C   UNL     1       6.522  -1.797  -3.032  0.00  0.00    +0.000 A 
ENDBRANCH   9  11
ENDBRANCH   4   9
BRANCH   5  17
ATOM     17  O   UNL     1       7.991  -5.232  -5.248  0.00  0.00    +0.000 OA
ATOM     18  H   UNL     1       7.445  -4.531  -5.684  0.00  0.00    +0.000 HD
ENDBRANCH   5  17
TORSDOF 4
ENDMDL
MODEL 7
REMARK VINA RESULT:      -4.6      2.359      3.975
REMARK  Name = bgox31_5_ligand
REMARK  5 active torsions:
REMARK  status: ('A' for Active; 'I' for Inactive)
REMARK    1  A    between atoms: C_1  and  O_2
REMARK    2  A    between atoms: O_2  and  C_3
REMARK    3  A    between atoms: C_6  and  C_7
REMARK    4  A    between atoms: C_7  and  C_9
REMARK    5  A    between atoms: C_15  and  O_16
REMARK                            x       y       z     vdW  Elec       q    Type
REMARK                         _______ _______ _______ _____ _____    ______ ____
ROOT
ATOM      1  C   UNL     1       7.436  -6.374  -3.642  0.00  0.00    +0.000 A 
ATOM      2  C   UNL     1       7.412  -5.962  -2.347  0.00  0.00    +0.000 A 
ATOM      3  C   UNL     1       6.667  -4.814  -2.000  0.00  0.00    +0.000 A 
ATOM      4  C   UNL     1       5.966  -4.072  -2.928  0.00  0.00    +0.000 A 
ATOM      5  C   UNL     1       6.001  -4.488  -4.256  0.00  0.00    +0.000 A 
ATOM      6  C   UNL     1       6.747  -5.641  -4.621  0.00  0.00    +0.000 A 
ENDROOT
BRANCH   1   8
ATOM      7  C   UNL     1       8.459  -8.489  -2.739  0.00  0.00    +0.000 C 
ATOM      8  O   UNL     1       8.244  -7.551  -3.833  0.00  0.00    +0.000 OA
ENDBRANCH   1   8
BRANCH   4   9
ATOM      9  C   UNL     1       5.243  -2.896  -2.505  0.00  0.00    +0.000 C 
ATOM     10  O   UNL     1       4.020  -2.980  -2.335  0.00  0.00    +0.000 OA
BRANCH   9  11
ATOM     11  C   UNL     1       5.945  -1.579  -2.385  0.00  0.00    +0.000 A 
ATOM     12  C   UNL     1       7.132  -1.264  -3.022  0.00  0.00    +0.000 A 
ATOM     13  C   UNL     1       7.747   0.008  -2.859  0.00  0.00    +0.000 A 
ATOM     14  C   UNL     1       7.194   0.982  -2.083  0.00  0.00    +0.000 A 
ATOM     15  C   UNL     1       6.003   0.718  -1.452  0.00  0.00    +0.000 A 
ATOM     16  C   UNL     1       5.416  -0.563  -1.592  0.00  0.00    +0.000 A 
ENDBRANCH   9  11
ENDBRANCH   4   9
BRANCH   5  17
ATOM     17  O   UNL     1       5.314  -3.789  -5.193  0.00  0.00    +0.000 OA
ATOM     18  H   UNL     1       4.339  -3.654  -5.091  0.00  0.00    +0.000 HD
ENDBRANCH   5  17
TORSDOF 4
ENDMDL
MODEL 8
REMARK VINA RESULT:      -4.5      3.969      6.631
REMARK  Name = bgox31_5_ligand
REMARK  5 active torsions:
REMARK  status: ('A' for Active; 'I' for Inactive)
REMARK    1  A    between atoms: C_1  and  O_2
REMARK    2  A    between atoms: O_2  and  C_3
REMARK    3  A    between atoms: C_6  and  C_7
REMARK    4  A    between atoms: C_7  and  C_9
REMARK    5  A    between atoms: C_15  and  O_16
REMARK                            x       y       z     vdW  Elec       q    Type
REMARK                         _______ _______ _______ _____ _____    ______ ____
ROOT
ATOM      1  C   UNL     1       6.045  -1.853  -1.567  0.00  0.00    +0.000 A 
ATOM      2  C   UNL     1       5.161  -0.866  -1.873  0.00  0.00    +0.000 A 
ATOM      3  C   UNL     1       5.603   0.475  -1.897  0.00  0.00    +0.000 A 
ATOM      4  C   UNL     1       6.902   0.837  -1.607  0.00  0.00    +0.000 A 
ATOM      5  C   UNL     1       7.803  -0.173  -1.281  0.00  0.00    +0.000 A 
ATOM      6  C   UNL     1       7.374  -1.527  -1.252  0.00  0.00    +0.000 A 
ENDROOT
BRANCH   1   8
ATOM      7  C   UNL     1       4.888  -3.714  -2.805  0.00  0.00    +0.000 C 
ATOM      8  O   UNL     1       5.440  -3.159  -1.576  0.00  0.00    +0.000 OA
ENDBRANCH   1   8
BRANCH   4   9
ATOM      9  C   UNL     1       7.278   2.230  -1.630  0.00  0.00    +0.000 C 
ATOM     10  O   UNL     1       7.556   2.788  -0.561  0.00  0.00    +0.000 OA
BRANCH   9  11
ATOM     11  C   UNL     1       7.224   3.008  -2.908  0.00  0.00    +0.000 A 
ATOM     12  C   UNL     1       6.197   3.867  -3.259  0.00  0.00    +0.000 A 
ATOM     13  C   UNL     1       6.208   4.571  -4.494  0.00  0.00    +0.000 A 
ATOM     14  C   UNL     1       7.232   4.450  -5.385  0.00  0.00    +0.000 A 
ATOM     15  C   UNL     1       8.283   3.626  -5.064  0.00  0.00    +0.000 A 
ATOM     16  C   UNL     1       8.247   2.901  -3.848  0.00  0.00    +0.000 A 
ENDBRANCH   9  11
ENDBRANCH   4   9
BRANCH   5  17
ATOM     17  O   UNL     1       9.091   0.146  -1.002  0.00  0.00    +0.000 OA
ATOM     18  H   UNL     1       9.325   1.070  -0.738  0.00  0.00    +0.000 HD
ENDBRANCH   5  17
TORSDOF 4
ENDMDL
MODEL 9
REMARK VINA RESULT:      -4.4      3.258      5.738
REMARK  Name = bgox31_5_ligand
REMARK  5 active torsions:
REMARK  status: ('A' for Active; 'I' for Inactive)
REMARK    1  A    between atoms: C_1  and  O_2
REMARK    2  A    between atoms: O_2  and  C_3
REMARK    3  A    between atoms: C_6  and  C_7
REMARK    4  A    between atoms: C_7  and  C_9
REMARK    5  A    between atoms: C_15  and  O_16
REMARK                            x       y       z     vdW  Elec       q    Type
REMARK                         _______ _______ _______ _____ _____    ______ ____
ROOT
ATOM      1  C   UNL     1       7.438  -6.178  -0.240  0.00  0.00    +0.000 A 
ATOM      2  C   UNL     1       6.768  -6.697  -1.302  0.00  0.00    +0.000 A 
ATOM      3  C   UNL     1       6.144  -5.823  -2.219  0.00  0.00    +0.000 A 
ATOM      4  C   UNL     1       6.170  -4.451  -2.078  0.00  0.00    +0.000 A 
ATOM      5  C   UNL     1       6.846  -3.922  -0.982  0.00  0.00    +0.000 A 
ATOM      6  C   UNL     1       7.479  -4.788  -0.051  0.00  0.00    +0.000 A 
ENDROOT
BRANCH   1   8
ATOM      7  C   UNL     1       8.035  -8.588   0.175  0.00  0.00    +0.000 C 
ATOM      8  O   UNL     1       8.009  -7.196   0.604  0.00  0.00    +0.000 OA
ENDBRANCH   1   8
BRANCH   4   9
ATOM      9  C   UNL     1       5.492  -3.620  -3.043  0.00  0.00    +0.000 C 
ATOM     10  O   UNL     1       4.384  -3.153  -2.750  0.00  0.00    +0.000 OA
BRANCH   9  11
ATOM     11  C   UNL     1       6.070  -3.420  -4.410  0.00  0.00    +0.000 A 
ATOM     12  C   UNL     1       5.677  -4.124  -5.535  0.00  0.00    +0.000 A 
ATOM     13  C   UNL     1       6.273  -3.885  -6.804  0.00  0.00    +0.000 A 
ATOM     14  C   UNL     1       7.246  -2.947  -6.980  0.00  0.00    +0.000 A 
ATOM     15  C   UNL     1       7.647  -2.210  -5.892  0.00  0.00    +0.000 A 
ATOM     16  C   UNL     1       7.073  -2.479  -4.626  0.00  0.00    +0.000 A 
ENDBRANCH   9  11
ENDBRANCH   4   9
BRANCH   5  17
ATOM     17  O   UNL     1       6.903  -2.577  -0.819  0.00  0.00    +0.000 OA
ATOM     18  H   UNL     1       6.200  -2.002  -1.211  0.00  0.00    +0.000 HD
ENDBRANCH   5  17
TORSDOF 4
ENDMDL
