REMARK  Name = bgox31_2_ligand
REMARK  5 active torsions:
REMARK  status: ('A' for Active; 'I' for Inactive)
REMARK    1  A    between atoms: C_1  and  O_2
REMARK    2  A    between atoms: O_2  and  C_3
REMARK    3  A    between atoms: C_6  and  C_7
REMARK    4  A    between atoms: C_7  and  C_9
REMARK    5  A    between atoms: C_15  and  O_16
REMARK                            x       y       z     vdW  Elec       q    Type
REMARK                         _______ _______ _______ _____ _____    ______ ____
ROOT
ATOM      1  C   UNL     1      -6.239   1.348  -1.529  0.00  0.00    +0.000 A 
ATOM      2  C   UNL     1      -5.338   1.415  -0.462  0.00  0.00    +0.000 A 
ATOM      3  C   UNL     1      -5.200   0.350   0.392  0.00  0.00    +0.000 A 
ATOM      4  C   UNL     1      -5.954  -0.768   0.166  0.00  0.00    +0.000 A 
ATOM      5  C   UNL     1      -6.814  -0.862  -0.915  0.00  0.00    +0.000 A 
ATOM      6  C   UNL     1      -6.939   0.200  -1.758  0.00  0.00    +0.000 A 
ENDROOT
BRANCH   1   8
ATOM      7  C   UNL     1      -7.572   2.506  -3.063  0.00  0.00    +0.000 C 
ATOM      8  O   UNL     1      -6.382   2.420  -2.318  0.00  0.00    +0.000 OA
ENDBRANCH   1   8
BRANCH   4   9
ATOM      9  C   UNL     1      -5.811  -1.910   1.132  0.00  0.00    +0.000 C 
ATOM     10  O   UNL     1      -5.902  -3.025   0.700  0.00  0.00    +0.000 OA
BRANCH   9  11
ATOM     11  C   UNL     1      -5.456  -1.707   2.506  0.00  0.00    +0.000 A 
ATOM     12  C   UNL     1      -4.841  -2.755   3.151  0.00  0.00    +0.000 A 
ATOM     13  C   UNL     1      -4.543  -2.619   4.489  0.00  0.00    +0.000 A 
ATOM     14  C   UNL     1      -4.855  -1.443   5.127  0.00  0.00    +0.000 A 
ATOM     15  C   UNL     1      -5.457  -0.455   4.511  0.00  0.00    +0.000 A 
ATOM     16  C   UNL     1      -5.748  -0.583   3.170  0.00  0.00    +0.000 A 
ENDBRANCH   9  11
ENDBRANCH   4   9
BRANCH   5  17
ATOM     17  O   UNL     1      -7.471  -2.015  -1.111  0.00  0.00    +0.000 OA
ATOM     18  H   UNL     1      -8.091  -2.108  -1.877  0.00  0.00    +0.000 HD
ENDBRANCH   5  17
TORSDOF 4
