MODEL 1
REMARK VINA RESULT:      -4.8      0.000      0.000
REMARK  Name = bgox31_2_ligand
REMARK  5 active torsions:
REMARK  status: ('A' for Active; 'I' for Inactive)
REMARK    1  A    between atoms: C_1  and  O_2
REMARK    2  A    between atoms: O_2  and  C_3
REMARK    3  A    between atoms: C_6  and  C_7
REMARK    4  A    between atoms: C_7  and  C_9
REMARK    5  A    between atoms: C_15  and  O_16
REMARK                            x       y       z     vdW  Elec       q    Type
REMARK                         _______ _______ _______ _____ _____    ______ ____
ROOT
ATOM      1  C   UNL     1      -1.868  -3.517   0.931  0.00  0.00    +0.000 A 
ATOM      2  C   UNL     1      -1.639  -3.445   2.308  0.00  0.00    +0.000 A 
ATOM      3  C   UNL     1      -1.196  -4.548   2.993  0.00  0.00    +0.000 A 
ATOM      4  C   UNL     1      -0.979  -5.704   2.295  0.00  0.00    +0.000 A 
ATOM      5  C   UNL     1      -1.158  -5.772   0.923  0.00  0.00    +0.000 A 
ATOM      6  C   UNL     1      -1.593  -4.669   0.255  0.00  0.00    +0.000 A 
ENDROOT
BRANCH   1   8
ATOM      7  C   UNL     1      -3.737  -2.261   0.300  0.00  0.00    +0.000 C 
ATOM      8  O   UNL     1      -2.341  -2.435   0.300  0.00  0.00    +0.000 OA
ENDBRANCH   1   8
BRANCH   4   9
ATOM      9  C   UNL     1      -0.526  -6.909   3.069  0.00  0.00    +0.000 C 
ATOM     10  O   UNL     1      -1.036  -7.964   2.815  0.00  0.00    +0.000 OA
BRANCH   9  11
ATOM     11  C   UNL     1       0.564  -6.852   3.999  0.00  0.00    +0.000 A 
ATOM     12  C   UNL     1       0.388  -7.495   5.203  0.00  0.00    +0.000 A 
ATOM     13  C   UNL     1       1.388  -7.408   6.146  0.00  0.00    +0.000 A 
ATOM     14  C   UNL     1       2.527  -6.699   5.849  0.00  0.00    +0.000 A 
ATOM     15  C   UNL     1       2.680  -6.074   4.707  0.00  0.00    +0.000 A 
ATOM     16  C   UNL     1       1.686  -6.166   3.757  0.00  0.00    +0.000 A 
ENDBRANCH   9  11
ENDBRANCH   4   9
BRANCH   5  17
ATOM     17  O   UNL     1      -0.861  -6.921   0.297  0.00  0.00    +0.000 OA
ATOM     18  H   UNL     1       0.060  -7.085  -0.026  0.00  0.00    +0.000 HD
ENDBRANCH   5  17
TORSDOF 4
ENDMDL
MODEL 2
REMARK VINA RESULT:      -4.6      1.730      6.008
REMARK  Name = bgox31_2_ligand
REMARK  5 active torsions:
REMARK  status: ('A' for Active; 'I' for Inactive)
REMARK    1  A    between atoms: C_1  and  O_2
REMARK    2  A    between atoms: O_2  and  C_3
REMARK    3  A    between atoms: C_6  and  C_7
REMARK    4  A    between atoms: C_7  and  C_9
REMARK    5  A    between atoms: C_15  and  O_16
REMARK                            x       y       z     vdW  Elec       q    Type
REMARK                         _______ _______ _______ _____ _____    ______ ____
ROOT
ATOM      1  C   UNL     1       2.387  -6.698   5.995  0.00  0.00    +0.000 A 
ATOM      2  C   UNL     1       2.637  -6.005   4.807  0.00  0.00    +0.000 A 
ATOM      3  C   UNL     1       1.753  -6.087   3.761  0.00  0.00    +0.000 A 
ATOM      4  C   UNL     1       0.628  -6.849   3.917  0.00  0.00    +0.000 A 
ATOM      5  C   UNL     1       0.348  -7.501   5.106  0.00  0.00    +0.000 A 
ATOM      6  C   UNL     1       1.232  -7.409   6.138  0.00  0.00    +0.000 A 
ENDROOT
BRANCH   1   8
ATOM      7  C   UNL     1       4.275  -7.638   7.006  0.00  0.00    +0.000 C 
ATOM      8  O   UNL     1       3.291  -6.633   6.980  0.00  0.00    +0.000 OA
ENDBRANCH   1   8
BRANCH   4   9
ATOM      9  C   UNL     1      -0.311  -6.951   2.749  0.00  0.00    +0.000 C 
ATOM     10  O   UNL     1      -0.653  -8.045   2.398  0.00  0.00    +0.000 OA
BRANCH   9  11
ATOM     11  C   UNL     1      -0.890  -5.793   2.133  0.00  0.00    +0.000 A 
ATOM     12  C   UNL     1      -1.196  -5.887   0.795  0.00  0.00    +0.000 A 
ATOM     13  C   UNL     1      -1.695  -4.774   0.155  0.00  0.00    +0.000 A 
ATOM     14  C   UNL     1      -1.883  -3.618   0.874  0.00  0.00    +0.000 A 
ATOM     15  C   UNL     1      -1.574  -3.530   2.144  0.00  0.00    +0.000 A 
ATOM     16  C   UNL     1      -1.083  -4.644   2.791  0.00  0.00    +0.000 A 
ENDBRANCH   9  11
ENDBRANCH   4   9
BRANCH   5  17
ATOM     17  O   UNL     1      -0.807  -8.176   5.209  0.00  0.00    +0.000 OA
ATOM     18  H   UNL     1      -1.594  -7.893   4.680  0.00  0.00    +0.000 HD
ENDBRANCH   5  17
TORSDOF 4
ENDMDL
MODEL 3
REMARK VINA RESULT:      -4.5      2.393      6.121
REMARK  Name = bgox31_2_ligand
REMARK  5 active torsions:
REMARK  status: ('A' for Active; 'I' for Inactive)
REMARK    1  A    between atoms: C_1  and  O_2
REMARK    2  A    between atoms: O_2  and  C_3
REMARK    3  A    between atoms: C_6  and  C_7
REMARK    4  A    between atoms: C_7  and  C_9
REMARK    5  A    between atoms: C_15  and  O_16
REMARK                            x       y       z     vdW  Elec       q    Type
REMARK                         _______ _______ _______ _____ _____    ______ ____
ROOT
ATOM      1  C   UNL     1       1.772  -7.093   7.300  0.00  0.00    +0.000 A 
ATOM      2  C   UNL     1       0.686  -7.811   6.791  0.00  0.00    +0.000 A 
ATOM      3  C   UNL     1       0.426  -7.806   5.443  0.00  0.00    +0.000 A 
ATOM      4  C   UNL     1       1.256  -7.094   4.623  0.00  0.00    +0.000 A 
ATOM      5  C   UNL     1       2.362  -6.418   5.111  0.00  0.00    +0.000 A 
ATOM      6  C   UNL     1       2.612  -6.434   6.450  0.00  0.00    +0.000 A 
ENDROOT
BRANCH   1   8
ATOM      7  C   UNL     1       1.113  -6.274   9.389  0.00  0.00    +0.000 C 
ATOM      8  O   UNL     1       1.973  -7.082   8.623  0.00  0.00    +0.000 OA
ENDBRANCH   1   8
BRANCH   4   9
ATOM      9  C   UNL     1       0.935  -7.076   3.155  0.00  0.00    +0.000 C 
ATOM     10  O   UNL     1       1.494  -7.867   2.448  0.00  0.00    +0.000 OA
BRANCH   9  11
ATOM     11  C   UNL     1      -0.090  -6.235   2.609  0.00  0.00    +0.000 A 
ATOM     12  C   UNL     1      -0.779  -6.721   1.522  0.00  0.00    +0.000 A 
ATOM     13  C   UNL     1      -1.728  -5.915   0.931  0.00  0.00    +0.000 A 
ATOM     14  C   UNL     1      -1.963  -4.667   1.454  0.00  0.00    +0.000 A 
ATOM     15  C   UNL     1      -1.290  -4.203   2.480  0.00  0.00    +0.000 A 
ATOM     16  C   UNL     1      -0.348  -5.010   3.079  0.00  0.00    +0.000 A 
ENDBRANCH   9  11
ENDBRANCH   4   9
BRANCH   5  17
ATOM     17  O   UNL     1       3.169  -5.797   4.238  0.00  0.00    +0.000 OA
ATOM     18  H   UNL     1       3.750  -5.055   4.541  0.00  0.00    +0.000 HD
ENDBRANCH   5  17
TORSDOF 4
ENDMDL
MODEL 4
REMARK VINA RESULT:      -4.3      9.719     11.481
REMARK  Name = bgox31_2_ligand
REMARK  5 active torsions:
REMARK  status: ('A' for Active; 'I' for Inactive)
REMARK    1  A    between atoms: C_1  and  O_2
REMARK    2  A    between atoms: O_2  and  C_3
REMARK    3  A    between atoms: C_6  and  C_7
REMARK    4  A    between atoms: C_7  and  C_9
REMARK    5  A    between atoms: C_15  and  O_16
REMARK                            x       y       z     vdW  Elec       q    Type
REMARK                         _______ _______ _______ _____ _____    ______ ____
ROOT
ATOM      1  C   UNL     1       1.627  -3.078  -8.748  0.00  0.00    +0.000 A 
ATOM      2  C   UNL     1       0.629  -3.793  -9.417  0.00  0.00    +0.000 A 
ATOM      3  C   UNL     1      -0.410  -4.349  -8.714  0.00  0.00    +0.000 A 
ATOM      4  C   UNL     1      -0.444  -4.178  -7.358  0.00  0.00    +0.000 A 
ATOM      5  C   UNL     1       0.514  -3.432  -6.692  0.00  0.00    +0.000 A 
ATOM      6  C   UNL     1       1.538  -2.881  -7.402  0.00  0.00    +0.000 A 
ENDROOT
BRANCH   1   8
ATOM      7  C   UNL     1       2.648  -1.199  -9.696  0.00  0.00    +0.000 C 
ATOM      8  O   UNL     1       2.650  -2.586  -9.458  0.00  0.00    +0.000 OA
ENDBRANCH   1   8
BRANCH   4   9
ATOM      9  C   UNL     1      -1.572  -4.823  -6.604  0.00  0.00    +0.000 C 
ATOM     10  O   UNL     1      -1.294  -5.547  -5.689  0.00  0.00    +0.000 OA
BRANCH   9  11
ATOM     11  C   UNL     1      -2.945  -4.505  -6.867  0.00  0.00    +0.000 A 
ATOM     12  C   UNL     1      -3.894  -5.291  -6.254  0.00  0.00    +0.000 A 
ATOM     13  C   UNL     1      -5.222  -5.056  -6.535  0.00  0.00    +0.000 A 
ATOM     14  C   UNL     1      -5.553  -4.042  -7.400  0.00  0.00    +0.000 A 
ATOM     15  C   UNL     1      -4.644  -3.309  -7.994  0.00  0.00    +0.000 A 
ATOM     16  C   UNL     1      -3.314  -3.534  -7.709  0.00  0.00    +0.000 A 
ENDBRANCH   9  11
ENDBRANCH   4   9
BRANCH   5  17
ATOM     17  O   UNL     1       0.379  -3.251  -5.370  0.00  0.00    +0.000 OA
ATOM     18  H   UNL     1       1.144  -3.420  -4.766  0.00  0.00    +0.000 HD
ENDBRANCH   5  17
TORSDOF 4
ENDMDL
MODEL 5
REMARK VINA RESULT:      -4.2      1.791      2.583
REMARK  Name = bgox31_2_ligand
REMARK  5 active torsions:
REMARK  status: ('A' for Active; 'I' for Inactive)
REMARK    1  A    between atoms: C_1  and  O_2
REMARK    2  A    between atoms: O_2  and  C_3
REMARK    3  A    between atoms: C_6  and  C_7
REMARK    4  A    between atoms: C_7  and  C_9
REMARK    5  A    between atoms: C_15  and  O_16
REMARK                            x       y       z     vdW  Elec       q    Type
REMARK                         _______ _______ _______ _____ _____    ______ ____
ROOT
ATOM      1  C   UNL     1      -1.420  -6.039   1.554  0.00  0.00    +0.000 A 
ATOM      2  C   UNL     1      -0.830  -5.176   2.482  0.00  0.00    +0.000 A 
ATOM      3  C   UNL     1       0.269  -5.580   3.198  0.00  0.00    +0.000 A 
ATOM      4  C   UNL     1       0.769  -6.832   2.972  0.00  0.00    +0.000 A 
ATOM      5  C   UNL     1       0.222  -7.676   2.021  0.00  0.00    +0.000 A 
ATOM      6  C   UNL     1      -0.866  -7.263   1.314  0.00  0.00    +0.000 A 
ENDROOT
BRANCH   1   8
ATOM      7  C   UNL     1      -2.424  -5.530  -0.496  0.00  0.00    +0.000 C 
ATOM      8  O   UNL     1      -2.517  -5.632   0.904  0.00  0.00    +0.000 OA
ENDBRANCH   1   8
BRANCH   4   9
ATOM      9  C   UNL     1       1.953  -7.266   3.789  0.00  0.00    +0.000 C 
ATOM     10  O   UNL     1       2.957  -7.567   3.207  0.00  0.00    +0.000 OA
BRANCH   9  11
ATOM     11  C   UNL     1       1.951  -7.214   5.222  0.00  0.00    +0.000 A 
ATOM     12  C   UNL     1       0.891  -7.810   5.864  0.00  0.00    +0.000 A 
ATOM     13  C   UNL     1       0.822  -7.725   7.238  0.00  0.00    +0.000 A 
ATOM     14  C   UNL     1       1.817  -7.064   7.916  0.00  0.00    +0.000 A 
ATOM     15  C   UNL     1       2.816  -6.483   7.297  0.00  0.00    +0.000 A 
ATOM     16  C   UNL     1       2.893  -6.574   5.924  0.00  0.00    +0.000 A 
ENDBRANCH   9  11
ENDBRANCH   4   9
BRANCH   5  17
ATOM     17  O   UNL     1       0.807  -8.864   1.807  0.00  0.00    +0.000 OA
ATOM     18  H   UNL     1       0.584  -9.388   0.997  0.00  0.00    +0.000 HD
ENDBRANCH   5  17
TORSDOF 4
ENDMDL
MODEL 6
REMARK VINA RESULT:      -4.1      1.469      2.125
REMARK  Name = bgox31_2_ligand
REMARK  5 active torsions:
REMARK  status: ('A' for Active; 'I' for Inactive)
REMARK    1  A    between atoms: C_1  and  O_2
REMARK    2  A    between atoms: O_2  and  C_3
REMARK    3  A    between atoms: C_6  and  C_7
REMARK    4  A    between atoms: C_7  and  C_9
REMARK    5  A    between atoms: C_15  and  O_16
REMARK                            x       y       z     vdW  Elec       q    Type
REMARK                         _______ _______ _______ _____ _____    ______ ____
ROOT
ATOM      1  C   UNL     1      -2.580  -3.131   0.867  0.00  0.00    +0.000 A 
ATOM      2  C   UNL     1      -1.638  -3.979   0.277  0.00  0.00    +0.000 A 
ATOM      3  C   UNL     1      -1.174  -5.075   0.960  0.00  0.00    +0.000 A 
ATOM      4  C   UNL     1      -1.660  -5.314   2.216  0.00  0.00    +0.000 A 
ATOM      5  C   UNL     1      -2.628  -4.507   2.790  0.00  0.00    +0.000 A 
ATOM      6  C   UNL     1      -3.084  -3.425   2.100  0.00  0.00    +0.000 A 
ENDROOT
BRANCH   1   8
ATOM      7  C   UNL     1      -4.356  -1.753   0.219  0.00  0.00    +0.000 C 
ATOM      8  O   UNL     1      -2.980  -2.046   0.192  0.00  0.00    +0.000 OA
ENDBRANCH   1   8
BRANCH   4   9
ATOM      9  C   UNL     1      -1.114  -6.501   2.958  0.00  0.00    +0.000 C 
ATOM     10  O   UNL     1      -1.884  -7.358   3.289  0.00  0.00    +0.000 OA
BRANCH   9  11
ATOM     11  C   UNL     1       0.291  -6.687   3.170  0.00  0.00    +0.000 A 
ATOM     12  C   UNL     1       0.863  -7.805   2.607  0.00  0.00    +0.000 A 
ATOM     13  C   UNL     1       2.197  -8.050   2.843  0.00  0.00    +0.000 A 
ATOM     14  C   UNL     1       2.912  -7.168   3.617  0.00  0.00    +0.000 A 
ATOM     15  C   UNL     1       2.358  -6.115   4.165  0.00  0.00    +0.000 A 
ATOM     16  C   UNL     1       1.025  -5.860   3.924  0.00  0.00    +0.000 A 
ENDBRANCH   9  11
ENDBRANCH   4   9
BRANCH   5  17
ATOM     17  O   UNL     1      -3.106  -4.842   3.997  0.00  0.00    +0.000 OA
ATOM     18  H   UNL     1      -4.048  -4.646   4.229  0.00  0.00    +0.000 HD
ENDBRANCH   5  17
TORSDOF 4
ENDMDL
MODEL 7
REMARK VINA RESULT:      -4.0      2.065      6.717
REMARK  Name = bgox31_2_ligand
REMARK  5 active torsions:
REMARK  status: ('A' for Active; 'I' for Inactive)
REMARK    1  A    between atoms: C_1  and  O_2
REMARK    2  A    between atoms: O_2  and  C_3
REMARK    3  A    between atoms: C_6  and  C_7
REMARK    4  A    between atoms: C_7  and  C_9
REMARK    5  A    between atoms: C_15  and  O_16
REMARK                            x       y       z     vdW  Elec       q    Type
REMARK                         _______ _______ _______ _____ _____    ______ ____
ROOT
ATOM      1  C   UNL     1      -2.233  -6.620   3.256  0.00  0.00    +0.000 A 
ATOM      2  C   UNL     1      -2.936  -5.487   3.676  0.00  0.00    +0.000 A 
ATOM      3  C   UNL     1      -3.011  -4.382   2.866  0.00  0.00    +0.000 A 
ATOM      4  C   UNL     1      -2.394  -4.425   1.647  0.00  0.00    +0.000 A 
ATOM      5  C   UNL     1      -1.736  -5.559   1.202  0.00  0.00    +0.000 A 
ATOM      6  C   UNL     1      -1.672  -6.651   2.013  0.00  0.00    +0.000 A 
ENDROOT
BRANCH   1   8
ATOM      7  C   UNL     1      -0.875  -7.927   4.641  0.00  0.00    +0.000 C 
ATOM      8  O   UNL     1      -2.142  -7.665   4.088  0.00  0.00    +0.000 OA
ENDBRANCH   1   8
BRANCH   4   9
ATOM      9  C   UNL     1      -2.461  -3.193   0.790  0.00  0.00    +0.000 C 
ATOM     10  O   UNL     1      -1.433  -2.635   0.528  0.00  0.00    +0.000 OA
BRANCH   9  11
ATOM     11  C   UNL     1      -3.685  -2.747   0.190  0.00  0.00    +0.000 A 
ATOM     12  C   UNL     1      -3.982  -1.409   0.304  0.00  0.00    +0.000 A 
ATOM     13  C   UNL     1      -5.179  -0.956  -0.204  0.00  0.00    +0.000 A 
ATOM     14  C   UNL     1      -6.025  -1.848  -0.817  0.00  0.00    +0.000 A 
ATOM     15  C   UNL     1      -5.744  -3.125  -0.907  0.00  0.00    +0.000 A 
ATOM     16  C   UNL     1      -4.543  -3.581  -0.408  0.00  0.00    +0.000 A 
ENDBRANCH   9  11
ENDBRANCH   4   9
BRANCH   5  17
ATOM     17  O   UNL     1      -1.211  -5.551  -0.033  0.00  0.00    +0.000 OA
ATOM     18  H   UNL     1      -1.280  -6.355  -0.606  0.00  0.00    +0.000 HD
ENDBRANCH   5  17
TORSDOF 4
ENDMDL
MODEL 8
REMARK VINA RESULT:      -4.0      1.302      1.920
REMARK  Name = bgox31_2_ligand
REMARK  5 active torsions:
REMARK  status: ('A' for Active; 'I' for Inactive)
REMARK    1  A    between atoms: C_1  and  O_2
REMARK    2  A    between atoms: O_2  and  C_3
REMARK    3  A    between atoms: C_6  and  C_7
REMARK    4  A    between atoms: C_7  and  C_9
REMARK    5  A    between atoms: C_15  and  O_16
REMARK                            x       y       z     vdW  Elec       q    Type
REMARK                         _______ _______ _______ _____ _____    ______ ____
ROOT
ATOM      1  C   UNL     1      -3.239  -4.269   2.308  0.00  0.00    +0.000 A 
ATOM      2  C   UNL     1      -1.935  -3.767   2.363  0.00  0.00    +0.000 A 
ATOM      3  C   UNL     1      -0.875  -4.620   2.537  0.00  0.00    +0.000 A 
ATOM      4  C   UNL     1      -1.127  -5.960   2.644  0.00  0.00    +0.000 A 
ATOM      5  C   UNL     1      -2.410  -6.471   2.543  0.00  0.00    +0.000 A 
ATOM      6  C   UNL     1      -3.454  -5.615   2.366  0.00  0.00    +0.000 A 
ENDROOT
BRANCH   1   8
ATOM      7  C   UNL     1      -4.114  -2.397   1.212  0.00  0.00    +0.000 C 
ATOM      8  O   UNL     1      -4.255  -3.407   2.181  0.00  0.00    +0.000 OA
ENDBRANCH   1   8
BRANCH   4   9
ATOM      9  C   UNL     1       0.046  -6.872   2.866  0.00  0.00    +0.000 C 
ATOM     10  O   UNL     1       0.407  -7.555   1.949  0.00  0.00    +0.000 OA
BRANCH   9  11
ATOM     11  C   UNL     1       0.802  -6.860   4.084  0.00  0.00    +0.000 A 
ATOM     12  C   UNL     1       2.016  -6.213   4.055  0.00  0.00    +0.000 A 
ATOM     13  C   UNL     1       2.799  -6.235   5.188  0.00  0.00    +0.000 A 
ATOM     14  C   UNL     1       2.338  -6.886   6.307  0.00  0.00    +0.000 A 
ATOM     15  C   UNL     1       1.188  -7.515   6.322  0.00  0.00    +0.000 A 
ATOM     16  C   UNL     1       0.397  -7.487   5.194  0.00  0.00    +0.000 A 
ENDBRANCH   9  11
ENDBRANCH   4   9
BRANCH   5  17
ATOM     17  O   UNL     1      -2.573  -7.802   2.590  0.00  0.00    +0.000 OA
ATOM     18  H   UNL     1      -1.829  -8.402   2.333  0.00  0.00    +0.000 HD
ENDBRANCH   5  17
TORSDOF 4
ENDMDL
MODEL 9
REMARK VINA RESULT:      -4.0      4.849      7.142
REMARK  Name = bgox31_2_ligand
REMARK  5 active torsions:
REMARK  status: ('A' for Active; 'I' for Inactive)
REMARK    1  A    between atoms: C_1  and  O_2
REMARK    2  A    between atoms: O_2  and  C_3
REMARK    3  A    between atoms: C_6  and  C_7
REMARK    4  A    between atoms: C_7  and  C_9
REMARK    5  A    between atoms: C_15  and  O_16
REMARK                            x       y       z     vdW  Elec       q    Type
REMARK                         _______ _______ _______ _____ _____    ______ ____
ROOT
ATOM      1  C   UNL     1      -5.648   1.400  -1.729  0.00  0.00    +0.000 A 
ATOM      2  C   UNL     1      -4.422   1.334  -1.060  0.00  0.00    +0.000 A 
ATOM      3  C   UNL     1      -4.137   0.268  -0.245  0.00  0.00    +0.000 A 
ATOM      4  C   UNL     1      -5.072  -0.721  -0.116  0.00  0.00    +0.000 A 
ATOM      5  C   UNL     1      -6.269  -0.689  -0.811  0.00  0.00    +0.000 A 
ATOM      6  C   UNL     1      -6.539   0.373  -1.620  0.00  0.00    +0.000 A 
ENDROOT
BRANCH   1   8
ATOM      7  C   UNL     1      -6.103   2.255  -3.858  0.00  0.00    +0.000 C 
ATOM      8  O   UNL     1      -5.913   2.475  -2.482  0.00  0.00    +0.000 OA
ENDBRANCH   1   8
BRANCH   4   9
ATOM      9  C   UNL     1      -4.753  -1.864   0.806  0.00  0.00    +0.000 C 
ATOM     10  O   UNL     1      -5.391  -1.964   1.816  0.00  0.00    +0.000 OA
BRANCH   9  11
ATOM     11  C   UNL     1      -3.808  -2.884   0.458  0.00  0.00    +0.000 A 
ATOM     12  C   UNL     1      -4.310  -4.022  -0.131  0.00  0.00    +0.000 A 
ATOM     13  C   UNL     1      -3.440  -5.050  -0.421  0.00  0.00    +0.000 A 
ATOM     14  C   UNL     1      -2.106  -4.899  -0.128  0.00  0.00    +0.000 A 
ATOM     15  C   UNL     1      -1.637  -3.819   0.449  0.00  0.00    +0.000 A 
ATOM     16  C   UNL     1      -2.503  -2.785   0.732  0.00  0.00    +0.000 A 
ENDBRANCH   9  11
ENDBRANCH   4   9
BRANCH   5  17
ATOM     17  O   UNL     1      -7.109  -1.727  -0.687  0.00  0.00    +0.000 OA
ATOM     18  H   UNL     1      -6.841  -2.624  -1.009  0.00  0.00    +0.000 HD
ENDBRANCH   5  17
TORSDOF 4
ENDMDL
