REMARK  Name = bg33_4_ligand
REMARK  12 active torsions:
REMARK  status: ('A' for Active; 'I' for Inactive)
REMARK    1  A    between atoms: C_1  and  C_2
REMARK    2  A    between atoms: C_2  and  C_3
REMARK    3  A    between atoms: C_3  and  C_4
REMARK    4  A    between atoms: C_4  and  C_5
REMARK    5  A    between atoms: C_5  and  C_6
REMARK    6  A    between atoms: C_5  and  O_8
REMARK    7  A    between atoms: C_6  and  C_7
REMARK    8  A    between atoms: O_8  and  C_9
REMARK    9  A    between atoms: C_9  and  C_11
REMARK   10  A    between atoms: C_12  and  C_13
REMARK   11  A    between atoms: C_16  and  O_17
REMARK   12  A    between atoms: O_17  and  C_18
REMARK                            x       y       z     vdW  Elec       q    Type
REMARK                         _______ _______ _______ _____ _____    ______ ____
ROOT
ATOM      1  C   UNL     1       0.463  -1.107   6.944  0.00  0.00    +0.000 C 
ATOM      2  O   UNL     1       0.447  -1.290   8.199  0.00  0.00    +0.000 OA
ENDROOT
BRANCH   1   3
ATOM      3  C   UNL     1       1.696  -1.111   6.142  0.00  0.00    +0.000 C 
ATOM      4  C   UNL     1       1.609  -0.704   4.769  0.00  0.00    +0.000 C 
BRANCH   4   5
ATOM      5  C   UNL     1       2.820  -0.785   3.853  0.00  0.00    +0.000 A 
ATOM      6  C   UNL     1       4.111  -0.624   4.311  0.00  0.00    +0.000 A 
ATOM      7  C   UNL     1       5.236  -0.711   3.421  0.00  0.00    +0.000 A 
ATOM      8  C   UNL     1       5.080  -0.983   2.050  0.00  0.00    +0.000 A 
ATOM      9  C   UNL     1       3.767  -1.157   1.617  0.00  0.00    +0.000 A 
ATOM     10  C   UNL     1       2.674  -1.078   2.490  0.00  0.00    +0.000 A 
BRANCH   8  11
ATOM     11  O   UNL     1       6.124  -1.134   1.159  0.00  0.00    +0.000 OA
ATOM     12  C   UNL     1       7.482  -1.060   1.663  0.00  0.00    +0.000 C 
ENDBRANCH   8  11
ENDBRANCH   4   5
ENDBRANCH   1   3
BRANCH   1  13
ATOM     13  O   UNL     1      -0.793  -1.027   6.193  0.00  0.00    +0.000 OA
BRANCH  13  14
ATOM     14  C   UNL     1      -1.980  -0.796   6.873  0.00  0.00    +0.000 C 
BRANCH  14  15
ATOM     15  C   UNL     1      -2.493  -2.250   7.089  0.00  0.00    +0.000 C 
ATOM     16  C   UNL     1      -3.616  -2.311   8.175  0.00  0.00    +0.000 C 
ENDBRANCH  14  15
BRANCH  14  17
ATOM     17  C   UNL     1      -2.927   0.123   5.971  0.00  0.00    +0.000 C 
BRANCH  17  18
ATOM     18  C   UNL     1      -2.098   1.018   5.085  0.00  0.00    +0.000 C 
BRANCH  18  20
ATOM     19  C   UNL     1      -2.172   2.961   3.458  0.00  0.00    +0.000 C 
ATOM     20  C   UNL     1      -2.911   2.172   4.504  0.00  0.00    +0.000 C 
ENDBRANCH  18  20
ENDBRANCH  17  18
ENDBRANCH  14  17
ENDBRANCH  13  14
ENDBRANCH   1  13
TORSDOF 9
