MODEL 1
REMARK VINA RESULT:      -4.1      0.000      0.000
REMARK  Name = bg33_4_ligand
REMARK  12 active torsions:
REMARK  status: ('A' for Active; 'I' for Inactive)
REMARK    1  A    between atoms: C_1  and  C_2
REMARK    2  A    between atoms: C_2  and  C_3
REMARK    3  A    between atoms: C_3  and  C_4
REMARK    4  A    between atoms: C_4  and  C_5
REMARK    5  A    between atoms: C_5  and  C_6
REMARK    6  A    between atoms: C_5  and  O_8
REMARK    7  A    between atoms: C_6  and  C_7
REMARK    8  A    between atoms: O_8  and  C_9
REMARK    9  A    between atoms: C_9  and  C_11
REMARK   10  A    between atoms: C_12  and  C_13
REMARK   11  A    between atoms: C_16  and  O_17
REMARK   12  A    between atoms: O_17  and  C_18
REMARK                            x       y       z     vdW  Elec       q    Type
REMARK                         _______ _______ _______ _____ _____    ______ ____
ROOT
ATOM      1  C   UNL     1       1.256   4.616  -2.293  0.00  0.00    +0.000 C 
ATOM      2  O   UNL     1       0.554   3.626  -2.659  0.00  0.00    +0.000 OA
ENDROOT
BRANCH   1   3
ATOM      3  C   UNL     1       2.658   4.499  -1.862  0.00  0.00    +0.000 C 
ATOM      4  C   UNL     1       3.685   4.788  -2.820  0.00  0.00    +0.000 C 
BRANCH   4   5
ATOM      5  C   UNL     1       5.152   4.585  -2.477  0.00  0.00    +0.000 A 
ATOM      6  C   UNL     1       6.151   4.626  -3.427  0.00  0.00    +0.000 A 
ATOM      7  C   UNL     1       7.530   4.435  -3.071  0.00  0.00    +0.000 A 
ATOM      8  C   UNL     1       7.931   4.218  -1.740  0.00  0.00    +0.000 A 
ATOM      9  C   UNL     1       6.904   4.197  -0.798  0.00  0.00    +0.000 A 
ATOM     10  C   UNL     1       5.562   4.391  -1.150  0.00  0.00    +0.000 A 
BRANCH   8  11
ATOM     11  O   UNL     1       9.243   4.084  -1.330  0.00  0.00    +0.000 OA
ATOM     12  C   UNL     1       9.922   2.827  -1.579  0.00  0.00    +0.000 C 
ENDBRANCH   8  11
ENDBRANCH   4   5
ENDBRANCH   1   3
BRANCH   1  13
ATOM     13  O   UNL     1       0.736   5.980  -2.426  0.00  0.00    +0.000 OA
BRANCH  13  14
ATOM     14  C   UNL     1       0.625   6.780  -1.298  0.00  0.00    +0.000 C 
BRANCH  14  15
ATOM     15  C   UNL     1      -0.905   6.702  -1.021  0.00  0.00    +0.000 C 
ATOM     16  C   UNL     1      -1.512   8.113  -0.730  0.00  0.00    +0.000 C 
ENDBRANCH  14  15
BRANCH  14  17
ATOM     17  C   UNL     1       1.171   8.243  -1.641  0.00  0.00    +0.000 C 
BRANCH  17  18
ATOM     18  C   UNL     1       2.679   8.243  -1.679  0.00  0.00    +0.000 C 
BRANCH  18  20
ATOM     19  C   UNL     1       4.795   7.869  -0.334  0.00  0.00    +0.000 C 
ATOM     20  C   UNL     1       3.292   7.816  -0.348  0.00  0.00    +0.000 C 
ENDBRANCH  18  20
ENDBRANCH  17  18
ENDBRANCH  14  17
ENDBRANCH  13  14
ENDBRANCH   1  13
TORSDOF 9
ENDMDL
MODEL 2
REMARK VINA RESULT:      -4.0      2.428      3.737
REMARK  Name = bg33_4_ligand
REMARK  12 active torsions:
REMARK  status: ('A' for Active; 'I' for Inactive)
REMARK    1  A    between atoms: C_1  and  C_2
REMARK    2  A    between atoms: C_2  and  C_3
REMARK    3  A    between atoms: C_3  and  C_4
REMARK    4  A    between atoms: C_4  and  C_5
REMARK    5  A    between atoms: C_5  and  C_6
REMARK    6  A    between atoms: C_5  and  O_8
REMARK    7  A    between atoms: C_6  and  C_7
REMARK    8  A    between atoms: O_8  and  C_9
REMARK    9  A    between atoms: C_9  and  C_11
REMARK   10  A    between atoms: C_12  and  C_13
REMARK   11  A    between atoms: C_16  and  O_17
REMARK   12  A    between atoms: O_17  and  C_18
REMARK                            x       y       z     vdW  Elec       q    Type
REMARK                         _______ _______ _______ _____ _____    ______ ____
ROOT
ATOM      1  C   UNL     1       3.965   4.464  -4.455  0.00  0.00    +0.000 C 
ATOM      2  O   UNL     1       4.737   4.490  -5.461  0.00  0.00    +0.000 OA
ENDROOT
BRANCH   1   3
ATOM      3  C   UNL     1       4.438   4.601  -3.069  0.00  0.00    +0.000 C 
ATOM      4  C   UNL     1       5.848   4.492  -2.824  0.00  0.00    +0.000 C 
BRANCH   4   5
ATOM      5  C   UNL     1       6.397   4.516  -1.406  0.00  0.00    +0.000 A 
ATOM      6  C   UNL     1       6.872   3.387  -0.773  0.00  0.00    +0.000 A 
ATOM      7  C   UNL     1       7.390   3.442   0.566  0.00  0.00    +0.000 A 
ATOM      8  C   UNL     1       7.457   4.648   1.288  0.00  0.00    +0.000 A 
ATOM      9  C   UNL     1       6.986   5.776   0.619  0.00  0.00    +0.000 A 
ATOM     10  C   UNL     1       6.488   5.717  -0.689  0.00  0.00    +0.000 A 
BRANCH   8  11
ATOM     11  O   UNL     1       7.995   4.773   2.553  0.00  0.00    +0.000 OA
ATOM     12  C   UNL     1       8.926   3.761   3.014  0.00  0.00    +0.000 C 
ENDBRANCH   8  11
ENDBRANCH   4   5
ENDBRANCH   1   3
BRANCH   1  13
ATOM     13  O   UNL     1       2.511   4.443  -4.639  0.00  0.00    +0.000 OA
BRANCH  13  14
ATOM     14  C   UNL     1       1.715   3.797  -3.705  0.00  0.00    +0.000 C 
BRANCH  14  15
ATOM     15  C   UNL     1       1.111   2.649  -4.565  0.00  0.00    +0.000 C 
ATOM     16  C   UNL     1      -0.386   2.381  -4.202  0.00  0.00    +0.000 C 
ENDBRANCH  14  15
BRANCH  14  17
ATOM     17  C   UNL     1       0.646   4.835  -3.124  0.00  0.00    +0.000 C 
BRANCH  17  18
ATOM     18  C   UNL     1       0.814   4.980  -1.633  0.00  0.00    +0.000 C 
BRANCH  18  20
ATOM     19  C   UNL     1       2.443   6.820  -1.012  0.00  0.00    +0.000 C 
ATOM     20  C   UNL     1       1.003   6.434  -1.210  0.00  0.00    +0.000 C 
ENDBRANCH  18  20
ENDBRANCH  17  18
ENDBRANCH  14  17
ENDBRANCH  13  14
ENDBRANCH   1  13
TORSDOF 9
ENDMDL
MODEL 3
REMARK VINA RESULT:      -4.0      1.466      1.837
REMARK  Name = bg33_4_ligand
REMARK  12 active torsions:
REMARK  status: ('A' for Active; 'I' for Inactive)
REMARK    1  A    between atoms: C_1  and  C_2
REMARK    2  A    between atoms: C_2  and  C_3
REMARK    3  A    between atoms: C_3  and  C_4
REMARK    4  A    between atoms: C_4  and  C_5
REMARK    5  A    between atoms: C_5  and  C_6
REMARK    6  A    between atoms: C_5  and  O_8
REMARK    7  A    between atoms: C_6  and  C_7
REMARK    8  A    between atoms: O_8  and  C_9
REMARK    9  A    between atoms: C_9  and  C_11
REMARK   10  A    between atoms: C_12  and  C_13
REMARK   11  A    between atoms: C_16  and  O_17
REMARK   12  A    between atoms: O_17  and  C_18
REMARK                            x       y       z     vdW  Elec       q    Type
REMARK                         _______ _______ _______ _____ _____    ______ ____
ROOT
ATOM      1  C   UNL     1       1.745   4.151  -2.332  0.00  0.00    +0.000 C 
ATOM      2  O   UNL     1       1.652   3.067  -2.985  0.00  0.00    +0.000 OA
ENDROOT
BRANCH   1   3
ATOM      3  C   UNL     1       2.915   4.505  -1.515  0.00  0.00    +0.000 C 
ATOM      4  C   UNL     1       4.193   4.579  -2.162  0.00  0.00    +0.000 C 
BRANCH   4   5
ATOM      5  C   UNL     1       5.460   4.834  -1.362  0.00  0.00    +0.000 A 
ATOM      6  C   UNL     1       5.751   6.060  -0.801  0.00  0.00    +0.000 A 
ATOM      7  C   UNL     1       6.955   6.270  -0.045  0.00  0.00    +0.000 A 
ATOM      8  C   UNL     1       7.882   5.236   0.177  0.00  0.00    +0.000 A 
ATOM      9  C   UNL     1       7.556   4.004  -0.386  0.00  0.00    +0.000 A 
ATOM     10  C   UNL     1       6.378   3.803  -1.117  0.00  0.00    +0.000 A 
BRANCH   8  11
ATOM     11  O   UNL     1       9.026   5.363   0.941  0.00  0.00    +0.000 OA
ATOM     12  C   UNL     1       8.964   5.007   2.346  0.00  0.00    +0.000 C 
ENDBRANCH   8  11
ENDBRANCH   4   5
ENDBRANCH   1   3
BRANCH   1  13
ATOM     13  O   UNL     1       0.725   5.193  -2.483  0.00  0.00    +0.000 OA
BRANCH  13  14
ATOM     14  C   UNL     1       0.845   6.373  -1.762  0.00  0.00    +0.000 C 
BRANCH  14  15
ATOM     15  C   UNL     1      -0.593   6.522  -1.185  0.00  0.00    +0.000 C 
ATOM     16  C   UNL     1      -1.046   8.017  -1.142  0.00  0.00    +0.000 C 
ENDBRANCH  14  15
BRANCH  14  17
ATOM     17  C   UNL     1       1.296   7.544  -2.752  0.00  0.00    +0.000 C 
BRANCH  17  18
ATOM     18  C   UNL     1       2.593   8.154  -2.284  0.00  0.00    +0.000 C 
BRANCH  18  20
ATOM     19  C   UNL     1       3.769   9.074  -0.236  0.00  0.00    +0.000 C 
ATOM     20  C   UNL     1       2.736   8.117  -0.765  0.00  0.00    +0.000 C 
ENDBRANCH  18  20
ENDBRANCH  17  18
ENDBRANCH  14  17
ENDBRANCH  13  14
ENDBRANCH   1  13
TORSDOF 9
ENDMDL
MODEL 4
REMARK VINA RESULT:      -4.0      2.707      4.232
REMARK  Name = bg33_4_ligand
REMARK  12 active torsions:
REMARK  status: ('A' for Active; 'I' for Inactive)
REMARK    1  A    between atoms: C_1  and  C_2
REMARK    2  A    between atoms: C_2  and  C_3
REMARK    3  A    between atoms: C_3  and  C_4
REMARK    4  A    between atoms: C_4  and  C_5
REMARK    5  A    between atoms: C_5  and  C_6
REMARK    6  A    between atoms: C_5  and  O_8
REMARK    7  A    between atoms: C_6  and  C_7
REMARK    8  A    between atoms: O_8  and  C_9
REMARK    9  A    between atoms: C_9  and  C_11
REMARK   10  A    between atoms: C_12  and  C_13
REMARK   11  A    between atoms: C_16  and  O_17
REMARK   12  A    between atoms: O_17  and  C_18
REMARK                            x       y       z     vdW  Elec       q    Type
REMARK                         _______ _______ _______ _____ _____    ______ ____
ROOT
ATOM      1  C   UNL     1       4.671   4.799  -2.467  0.00  0.00    +0.000 C 
ATOM      2  O   UNL     1       5.152   4.613  -3.626  0.00  0.00    +0.000 OA
ENDROOT
BRANCH   1   3
ATOM      3  C   UNL     1       5.466   4.692  -1.235  0.00  0.00    +0.000 C 
ATOM      4  C   UNL     1       6.733   4.023  -1.306  0.00  0.00    +0.000 C 
BRANCH   4   5
ATOM      5  C   UNL     1       7.559   3.781  -0.053  0.00  0.00    +0.000 A 
ATOM      6  C   UNL     1       8.590   2.866  -0.007  0.00  0.00    +0.000 A 
ATOM      7  C   UNL     1       9.356   2.663   1.192  0.00  0.00    +0.000 A 
ATOM      8  C   UNL     1       9.109   3.397   2.366  0.00  0.00    +0.000 A 
ATOM      9  C   UNL     1       8.073   4.325   2.287  0.00  0.00    +0.000 A 
ATOM     10  C   UNL     1       7.333   4.524   1.114  0.00  0.00    +0.000 A 
BRANCH   8  11
ATOM     11  O   UNL     1       9.846   3.286   3.528  0.00  0.00    +0.000 OA
ATOM     12  C   UNL     1       9.346   2.432   4.588  0.00  0.00    +0.000 C 
ENDBRANCH   8  11
ENDBRANCH   4   5
ENDBRANCH   1   3
BRANCH   1  13
ATOM     13  O   UNL     1       3.298   5.287  -2.307  0.00  0.00    +0.000 OA
BRANCH  13  14
ATOM     14  C   UNL     1       2.278   4.382  -2.051  0.00  0.00    +0.000 C 
BRANCH  14  15
ATOM     15  C   UNL     1       1.760   4.094  -3.490  0.00  0.00    +0.000 C 
ATOM     16  C   UNL     1       0.597   3.050  -3.487  0.00  0.00    +0.000 C 
ENDBRANCH  14  15
BRANCH  14  17
ATOM     17  C   UNL     1       1.210   5.063  -1.076  0.00  0.00    +0.000 C 
BRANCH  17  18
ATOM     18  C   UNL     1       1.044   6.521  -1.418  0.00  0.00    +0.000 C 
BRANCH  18  20
ATOM     19  C   UNL     1      -1.275   7.309  -0.761  0.00  0.00    +0.000 C 
ATOM     20  C   UNL     1      -0.375   6.851  -1.876  0.00  0.00    +0.000 C 
ENDBRANCH  18  20
ENDBRANCH  17  18
ENDBRANCH  14  17
ENDBRANCH  13  14
ENDBRANCH   1  13
TORSDOF 9
ENDMDL
MODEL 5
REMARK VINA RESULT:      -4.0      2.535      8.282
REMARK  Name = bg33_4_ligand
REMARK  12 active torsions:
REMARK  status: ('A' for Active; 'I' for Inactive)
REMARK    1  A    between atoms: C_1  and  C_2
REMARK    2  A    between atoms: C_2  and  C_3
REMARK    3  A    between atoms: C_3  and  C_4
REMARK    4  A    between atoms: C_4  and  C_5
REMARK    5  A    between atoms: C_5  and  C_6
REMARK    6  A    between atoms: C_5  and  O_8
REMARK    7  A    between atoms: C_6  and  C_7
REMARK    8  A    between atoms: O_8  and  C_9
REMARK    9  A    between atoms: C_9  and  C_11
REMARK   10  A    between atoms: C_12  and  C_13
REMARK   11  A    between atoms: C_16  and  O_17
REMARK   12  A    between atoms: O_17  and  C_18
REMARK                            x       y       z     vdW  Elec       q    Type
REMARK                         _______ _______ _______ _____ _____    ______ ____
ROOT
ATOM      1  C   UNL     1       3.252   7.301  -1.163  0.00  0.00    +0.000 C 
ATOM      2  O   UNL     1       3.884   7.755  -0.161  0.00  0.00    +0.000 OA
ENDROOT
BRANCH   1   3
ATOM      3  C   UNL     1       1.947   7.821  -1.599  0.00  0.00    +0.000 C 
ATOM      4  C   UNL     1       0.767   7.126  -1.174  0.00  0.00    +0.000 C 
BRANCH   4   5
ATOM      5  C   UNL     1      -0.607   7.543  -1.673  0.00  0.00    +0.000 A 
ATOM      6  C   UNL     1      -1.590   8.023  -0.832  0.00  0.00    +0.000 A 
ATOM      7  C   UNL     1      -2.878   8.414  -1.335  0.00  0.00    +0.000 A 
ATOM      8  C   UNL     1      -3.194   8.347  -2.704  0.00  0.00    +0.000 A 
ATOM      9  C   UNL     1      -2.178   7.875  -3.533  0.00  0.00    +0.000 A 
ATOM     10  C   UNL     1      -0.921   7.501  -3.039  0.00  0.00    +0.000 A 
BRANCH   8  11
ATOM     11  O   UNL     1      -4.391   8.762  -3.252  0.00  0.00    +0.000 OA
ATOM     12  C   UNL     1      -5.277   7.762  -3.819  0.00  0.00    +0.000 C 
ENDBRANCH   8  11
ENDBRANCH   4   5
ENDBRANCH   1   3
BRANCH   1  13
ATOM     13  O   UNL     1       3.877   6.310  -2.043  0.00  0.00    +0.000 OA
BRANCH  13  14
ATOM     14  C   UNL     1       3.785   4.962  -1.725  0.00  0.00    +0.000 C 
BRANCH  14  15
ATOM     15  C   UNL     1       5.289   4.576  -1.607  0.00  0.00    +0.000 C 
ATOM     16  C   UNL     1       5.963   4.443  -3.011  0.00  0.00    +0.000 C 
ENDBRANCH  14  15
BRANCH  14  17
ATOM     17  C   UNL     1       2.987   4.206  -2.885  0.00  0.00    +0.000 C 
BRANCH  17  18
ATOM     18  C   UNL     1       1.562   3.956  -2.463  0.00  0.00    +0.000 C 
BRANCH  18  20
ATOM     19  C   UNL     1       1.600   2.606  -4.609  0.00  0.00    +0.000 C 
ATOM     20  C   UNL     1       0.751   3.251  -3.548  0.00  0.00    +0.000 C 
ENDBRANCH  18  20
ENDBRANCH  17  18
ENDBRANCH  14  17
ENDBRANCH  13  14
ENDBRANCH   1  13
TORSDOF 9
ENDMDL
MODEL 6
REMARK VINA RESULT:      -4.0      1.991      3.100
REMARK  Name = bg33_4_ligand
REMARK  12 active torsions:
REMARK  status: ('A' for Active; 'I' for Inactive)
REMARK    1  A    between atoms: C_1  and  C_2
REMARK    2  A    between atoms: C_2  and  C_3
REMARK    3  A    between atoms: C_3  and  C_4
REMARK    4  A    between atoms: C_4  and  C_5
REMARK    5  A    between atoms: C_5  and  C_6
REMARK    6  A    between atoms: C_5  and  O_8
REMARK    7  A    between atoms: C_6  and  C_7
REMARK    8  A    between atoms: O_8  and  C_9
REMARK    9  A    between atoms: C_9  and  C_11
REMARK   10  A    between atoms: C_12  and  C_13
REMARK   11  A    between atoms: C_16  and  O_17
REMARK   12  A    between atoms: O_17  and  C_18
REMARK                            x       y       z     vdW  Elec       q    Type
REMARK                         _______ _______ _______ _____ _____    ______ ____
ROOT
ATOM      1  C   UNL     1       1.997   4.091  -2.883  0.00  0.00    +0.000 C 
ATOM      2  O   UNL     1       1.473   2.944  -3.012  0.00  0.00    +0.000 OA
ENDROOT
BRANCH   1   3
ATOM      3  C   UNL     1       3.021   4.404  -1.874  0.00  0.00    +0.000 C 
ATOM      4  C   UNL     1       4.358   4.659  -2.327  0.00  0.00    +0.000 C 
BRANCH   4   5
ATOM      5  C   UNL     1       5.488   4.883  -1.334  0.00  0.00    +0.000 A 
ATOM      6  C   UNL     1       5.832   6.135  -0.869  0.00  0.00    +0.000 A 
ATOM      7  C   UNL     1       6.902   6.315   0.073  0.00  0.00    +0.000 A 
ATOM      8  C   UNL     1       7.636   5.227   0.580  0.00  0.00    +0.000 A 
ATOM      9  C   UNL     1       7.258   3.973   0.106  0.00  0.00    +0.000 A 
ATOM     10  C   UNL     1       6.209   3.803  -0.807  0.00  0.00    +0.000 A 
BRANCH   8  11
ATOM     11  O   UNL     1       8.635   5.332   1.528  0.00  0.00    +0.000 OA
ATOM     12  C   UNL     1       8.571   4.480   2.700  0.00  0.00    +0.000 C 
ENDBRANCH   8  11
ENDBRANCH   4   5
ENDBRANCH   1   3
BRANCH   1  13
ATOM     13  O   UNL     1       1.707   5.149  -3.855  0.00  0.00    +0.000 OA
BRANCH  13  14
ATOM     14  C   UNL     1       0.644   6.011  -3.626  0.00  0.00    +0.000 C 
BRANCH  14  15
ATOM     15  C   UNL     1       0.018   6.105  -5.049  0.00  0.00    +0.000 C 
ATOM     16  C   UNL     1      -0.604   4.742  -5.497  0.00  0.00    +0.000 C 
ENDBRANCH  14  15
BRANCH  14  17
ATOM     17  C   UNL     1       1.207   7.391  -3.048  0.00  0.00    +0.000 C 
BRANCH  17  18
ATOM     18  C   UNL     1       0.924   7.494  -1.571  0.00  0.00    +0.000 C 
BRANCH  18  20
ATOM     19  C   UNL     1      -1.491   7.607  -0.806  0.00  0.00    +0.000 C 
ATOM     20  C   UNL     1      -0.329   6.722  -1.165  0.00  0.00    +0.000 C 
ENDBRANCH  18  20
ENDBRANCH  17  18
ENDBRANCH  14  17
ENDBRANCH  13  14
ENDBRANCH   1  13
TORSDOF 9
ENDMDL
MODEL 7
REMARK VINA RESULT:      -3.9      2.193      3.631
REMARK  Name = bg33_4_ligand
REMARK  12 active torsions:
REMARK  status: ('A' for Active; 'I' for Inactive)
REMARK    1  A    between atoms: C_1  and  C_2
REMARK    2  A    between atoms: C_2  and  C_3
REMARK    3  A    between atoms: C_3  and  C_4
REMARK    4  A    between atoms: C_4  and  C_5
REMARK    5  A    between atoms: C_5  and  C_6
REMARK    6  A    between atoms: C_5  and  O_8
REMARK    7  A    between atoms: C_6  and  C_7
REMARK    8  A    between atoms: O_8  and  C_9
REMARK    9  A    between atoms: C_9  and  C_11
REMARK   10  A    between atoms: C_12  and  C_13
REMARK   11  A    between atoms: C_16  and  O_17
REMARK   12  A    between atoms: O_17  and  C_18
REMARK                            x       y       z     vdW  Elec       q    Type
REMARK                         _______ _______ _______ _____ _____    ______ ____
ROOT
ATOM      1  C   UNL     1       3.873   7.946  -1.534  0.00  0.00    +0.000 C 
ATOM      2  O   UNL     1       4.164   8.717  -2.498  0.00  0.00    +0.000 OA
ENDROOT
BRANCH   1   3
ATOM      3  C   UNL     1       4.881   7.211  -0.754  0.00  0.00    +0.000 C 
ATOM      4  C   UNL     1       5.397   5.989  -1.301  0.00  0.00    +0.000 C 
BRANCH   4   5
ATOM      5  C   UNL     1       6.359   5.123  -0.504  0.00  0.00    +0.000 A 
ATOM      6  C   UNL     1       6.694   3.840  -0.883  0.00  0.00    +0.000 A 
ATOM      7  C   UNL     1       7.611   3.047  -0.111  0.00  0.00    +0.000 A 
ATOM      8  C   UNL     1       8.226   3.544   1.052  0.00  0.00    +0.000 A 
ATOM      9  C   UNL     1       7.882   4.848   1.404  0.00  0.00    +0.000 A 
ATOM     10  C   UNL     1       6.993   5.619   0.644  0.00  0.00    +0.000 A 
BRANCH   8  11
ATOM     11  O   UNL     1       9.156   2.851   1.802  0.00  0.00    +0.000 OA
ATOM     12  C   UNL     1       9.576   3.409   3.073  0.00  0.00    +0.000 C 
ENDBRANCH   8  11
ENDBRANCH   4   5
ENDBRANCH   1   3
BRANCH   1  13
ATOM     13  O   UNL     1       2.494   7.864  -1.044  0.00  0.00    +0.000 OA
BRANCH  13  14
ATOM     14  C   UNL     1       1.587   7.042  -1.698  0.00  0.00    +0.000 C 
BRANCH  14  15
ATOM     15  C   UNL     1       0.276   7.870  -1.561  0.00  0.00    +0.000 C 
ATOM     16  C   UNL     1      -0.906   6.997  -1.027  0.00  0.00    +0.000 C 
ENDBRANCH  14  15
BRANCH  14  17
ATOM     17  C   UNL     1       1.559   5.617  -0.974  0.00  0.00    +0.000 C 
BRANCH  17  18
ATOM     18  C   UNL     1       2.117   4.555  -1.888  0.00  0.00    +0.000 C 
BRANCH  18  20
ATOM     19  C   UNL     1       1.512   2.918  -3.727  0.00  0.00    +0.000 C 
ATOM     20  C   UNL     1       1.150   4.191  -3.012  0.00  0.00    +0.000 C 
ENDBRANCH  18  20
ENDBRANCH  17  18
ENDBRANCH  14  17
ENDBRANCH  13  14
ENDBRANCH   1  13
TORSDOF 9
ENDMDL
MODEL 8
REMARK VINA RESULT:      -3.8      1.107      2.520
REMARK  Name = bg33_4_ligand
REMARK  12 active torsions:
REMARK  status: ('A' for Active; 'I' for Inactive)
REMARK    1  A    between atoms: C_1  and  C_2
REMARK    2  A    between atoms: C_2  and  C_3
REMARK    3  A    between atoms: C_3  and  C_4
REMARK    4  A    between atoms: C_4  and  C_5
REMARK    5  A    between atoms: C_5  and  C_6
REMARK    6  A    between atoms: C_5  and  O_8
REMARK    7  A    between atoms: C_6  and  C_7
REMARK    8  A    between atoms: O_8  and  C_9
REMARK    9  A    between atoms: C_9  and  C_11
REMARK   10  A    between atoms: C_12  and  C_13
REMARK   11  A    between atoms: C_16  and  O_17
REMARK   12  A    between atoms: O_17  and  C_18
REMARK                            x       y       z     vdW  Elec       q    Type
REMARK                         _______ _______ _______ _____ _____    ______ ____
ROOT
ATOM      1  C   UNL     1       1.216   4.333  -2.397  0.00  0.00    +0.000 C 
ATOM      2  O   UNL     1       0.280   3.618  -2.869  0.00  0.00    +0.000 OA
ENDROOT
BRANCH   1   3
ATOM      3  C   UNL     1       2.629   4.164  -2.769  0.00  0.00    +0.000 C 
ATOM      4  C   UNL     1       3.627   4.501  -1.796  0.00  0.00    +0.000 C 
BRANCH   4   5
ATOM      5  C   UNL     1       5.106   4.453  -2.147  0.00  0.00    +0.000 A 
ATOM      6  C   UNL     1       5.566   4.551  -3.444  0.00  0.00    +0.000 A 
ATOM      7  C   UNL     1       6.971   4.507  -3.743  0.00  0.00    +0.000 A 
ATOM      8  C   UNL     1       7.943   4.383  -2.734  0.00  0.00    +0.000 A 
ATOM      9  C   UNL     1       7.452   4.303  -1.433  0.00  0.00    +0.000 A 
ATOM     10  C   UNL     1       6.081   4.353  -1.145  0.00  0.00    +0.000 A 
BRANCH   8  11
ATOM     11  O   UNL     1       9.306   4.392  -2.956  0.00  0.00    +0.000 OA
ATOM     12  C   UNL     1      10.191   4.609  -1.827  0.00  0.00    +0.000 C 
ENDBRANCH   8  11
ENDBRANCH   4   5
ENDBRANCH   1   3
BRANCH   1  13
ATOM     13  O   UNL     1       0.907   5.488  -1.549  0.00  0.00    +0.000 OA
BRANCH  13  14
ATOM     14  C   UNL     1       0.109   6.507  -2.049  0.00  0.00    +0.000 C 
BRANCH  14  15
ATOM     15  C   UNL     1       1.178   7.580  -2.409  0.00  0.00    +0.000 C 
ATOM     16  C   UNL     1       2.145   7.856  -1.212  0.00  0.00    +0.000 C 
ENDBRANCH  14  15
BRANCH  14  17
ATOM     17  C   UNL     1      -0.936   6.950  -0.923  0.00  0.00    +0.000 C 
BRANCH  17  18
ATOM     18  C   UNL     1      -1.788   8.091  -1.420  0.00  0.00    +0.000 C 
BRANCH  18  20
ATOM     19  C   UNL     1      -0.839  10.396  -0.956  0.00  0.00    +0.000 C 
ATOM     20  C   UNL     1      -1.748   9.295  -0.482  0.00  0.00    +0.000 C 
ENDBRANCH  18  20
ENDBRANCH  17  18
ENDBRANCH  14  17
ENDBRANCH  13  14
ENDBRANCH   1  13
TORSDOF 9
ENDMDL
MODEL 9
REMARK VINA RESULT:      -3.8      2.698      4.495
REMARK  Name = bg33_4_ligand
REMARK  12 active torsions:
REMARK  status: ('A' for Active; 'I' for Inactive)
REMARK    1  A    between atoms: C_1  and  C_2
REMARK    2  A    between atoms: C_2  and  C_3
REMARK    3  A    between atoms: C_3  and  C_4
REMARK    4  A    between atoms: C_4  and  C_5
REMARK    5  A    between atoms: C_5  and  C_6
REMARK    6  A    between atoms: C_5  and  O_8
REMARK    7  A    between atoms: C_6  and  C_7
REMARK    8  A    between atoms: O_8  and  C_9
REMARK    9  A    between atoms: C_9  and  C_11
REMARK   10  A    between atoms: C_12  and  C_13
REMARK   11  A    between atoms: C_16  and  O_17
REMARK   12  A    between atoms: O_17  and  C_18
REMARK                            x       y       z     vdW  Elec       q    Type
REMARK                         _______ _______ _______ _____ _____    ______ ____
ROOT
ATOM      1  C   UNL     1       4.397   5.457  -2.005  0.00  0.00    +0.000 C 
ATOM      2  O   UNL     1       4.482   6.181  -3.043  0.00  0.00    +0.000 OA
ENDROOT
BRANCH   1   3
ATOM      3  C   UNL     1       5.489   5.309  -1.031  0.00  0.00    +0.000 C 
ATOM      4  C   UNL     1       6.207   4.067  -1.007  0.00  0.00    +0.000 C 
BRANCH   4   5
ATOM      5  C   UNL     1       7.276   3.804   0.043  0.00  0.00    +0.000 A 
ATOM      6  C   UNL     1       7.327   4.488   1.239  0.00  0.00    +0.000 A 
ATOM      7  C   UNL     1       8.347   4.214   2.214  0.00  0.00    +0.000 A 
ATOM      8  C   UNL     1       9.327   3.226   2.006  0.00  0.00    +0.000 A 
ATOM      9  C   UNL     1       9.243   2.540   0.796  0.00  0.00    +0.000 A 
ATOM     10  C   UNL     1       8.242   2.807  -0.147  0.00  0.00    +0.000 A 
BRANCH   8  11
ATOM     11  O   UNL     1      10.296   2.880   2.928  0.00  0.00    +0.000 OA
ATOM     12  C   UNL     1      10.950   3.936   3.676  0.00  0.00    +0.000 C 
ENDBRANCH   8  11
ENDBRANCH   4   5
ENDBRANCH   1   3
BRANCH   1  13
ATOM     13  O   UNL     1       3.121   4.834  -1.641  0.00  0.00    +0.000 OA
BRANCH  13  14
ATOM     14  C   UNL     1       1.953   5.268  -2.250  0.00  0.00    +0.000 C 
BRANCH  14  15
ATOM     15  C   UNL     1       1.373   6.212  -1.155  0.00  0.00    +0.000 C 
ATOM     16  C   UNL     1      -0.141   6.515  -1.397  0.00  0.00    +0.000 C 
ENDBRANCH  14  15
BRANCH  14  17
ATOM     17  C   UNL     1       1.042   4.000  -2.593  0.00  0.00    +0.000 C 
BRANCH  17  18
ATOM     18  C   UNL     1       1.771   3.071  -3.531  0.00  0.00    +0.000 C 
BRANCH  18  20
ATOM     19  C   UNL     1      -0.515   2.298  -4.307  0.00  0.00    +0.000 C 
ATOM     20  C   UNL     1       0.898   2.628  -4.702  0.00  0.00    +0.000 C 
ENDBRANCH  18  20
ENDBRANCH  17  18
ENDBRANCH  14  17
ENDBRANCH  13  14
ENDBRANCH   1  13
TORSDOF 9
ENDMDL
