REMARK  Name = ox1_esm1_f8_ligand
REMARK  5 active torsions:
REMARK  status: ('A' for Active; 'I' for Inactive)
REMARK    1  A    between atoms: C_1  and  O_2
REMARK    2  A    between atoms: O_2  and  C_3
REMARK    3  A    between atoms: C_6  and  C_7
REMARK    4  A    between atoms: C_7  and  C_9
REMARK    5  A    between atoms: C_15  and  O_16
REMARK                            x       y       z     vdW  Elec       q    Type
REMARK                         _______ _______ _______ _____ _____    ______ ____
ROOT
ATOM      1  C   UNL     1       2.566   1.649  -3.620  0.00  0.00    +0.000 A 
ATOM      2  C   UNL     1       1.646   0.636  -3.349  0.00  0.00    +0.000 A 
ATOM      3  C   UNL     1       1.601  -0.498  -4.149  0.00  0.00    +0.000 A 
ATOM      4  C   UNL     1       2.471  -0.650  -5.215  0.00  0.00    +0.000 A 
ATOM      5  C   UNL     1       3.399   0.373  -5.500  0.00  0.00    +0.000 A 
ATOM      6  C   UNL     1       3.431   1.509  -4.694  0.00  0.00    +0.000 A 
ENDROOT
BRANCH   1   8
ATOM      7  C   UNL     1       3.487   3.821  -3.025  0.00  0.00    +0.000 C 
ATOM      8  O   UNL     1       2.578   2.740  -2.800  0.00  0.00    +0.000 OA
ENDBRANCH   1   8
BRANCH   4   9
ATOM      9  C   UNL     1       2.425  -1.885  -6.063  0.00  0.00    +0.000 C 
ATOM     10  O   UNL     1       3.083  -1.928  -7.099  0.00  0.00    +0.000 OA
BRANCH   9  11
ATOM     11  C   UNL     1       1.574  -3.049  -5.677  0.00  0.00    +0.000 A 
ATOM     12  C   UNL     1       0.619  -3.515  -6.505  0.00  0.00    +0.000 A 
ATOM     13  C   UNL     1      -0.182  -4.609  -6.231  0.00  0.00    +0.000 A 
ATOM     14  C   UNL     1      -0.034  -5.249  -5.024  0.00  0.00    +0.000 A 
ATOM     15  C   UNL     1       0.929  -4.791  -4.135  0.00  0.00    +0.000 A 
ATOM     16  C   UNL     1       1.720  -3.692  -4.468  0.00  0.00    +0.000 A 
ENDBRANCH   9  11
ENDBRANCH   4   9
BRANCH   5  17
ATOM     17  O   UNL     1       4.245   0.233  -6.562  0.00  0.00    +0.000 OA
ATOM     18  H   UNL     1       4.900   0.946  -6.770  0.00  0.00    +0.000 HD
ENDBRANCH   5  17
TORSDOF 4
