REMARK  Name = /Users/cafierom/python_mac/peptidebuilder/runs/oxybenzone/dock/ox1_esm1_f8_o3apo/ox1_esm1_f8_o3apo_protein.pdb
REMARK                            x       y       z     vdW  Elec       q    Type
REMARK                         _______ _______ _______ _____ _____    ______ ____
ATOM      1  N   PHE A   1     -12.028   0.837  12.650  0.00  0.00    +0.000 NA
ATOM      2  CA  PHE A   1     -10.600   0.650  12.338  0.00  0.00    +0.000 C 
ATOM      3  C   PHE A   1      -9.854   1.974  12.383  0.00  0.00    +0.000 C 
ATOM      4  O   PHE A   1     -10.362   2.987  11.903  0.00  0.00    +0.000 OA
ATOM      5  CB  PHE A   1     -10.428   0.019  10.960  0.00  0.00    +0.000 C 
ATOM      6  CG  PHE A   1     -10.952  -1.390  10.883  0.00  0.00    +0.000 A 
ATOM      7  CD1 PHE A   1     -12.098  -1.683  10.160  0.00  0.00    +0.000 A 
ATOM      8  CD2 PHE A   1     -10.294  -2.419  11.544  0.00  0.00    +0.000 A 
ATOM      9  CE1 PHE A   1     -12.587  -2.978  10.097  0.00  0.00    +0.000 A 
ATOM     10  CE2 PHE A   1     -10.789  -3.708  11.495  0.00  0.00    +0.000 A 
ATOM     11  CZ  PHE A   1     -11.917  -3.996  10.751  0.00  0.00    +0.000 A 
ATOM     12  N   PRO A   2      -8.659   1.966  12.956  0.00  0.00    +0.000 N 
ATOM     13  CA  PRO A   2      -7.846   3.183  13.036  0.00  0.00    +0.000 C 
ATOM     14  C   PRO A   2      -7.368   3.624  11.651  0.00  0.00    +0.000 C 
ATOM     15  O   PRO A   2      -6.831   2.836  10.887  0.00  0.00    +0.000 OA
ATOM     16  CB  PRO A   2      -6.674   2.776  13.930  0.00  0.00    +0.000 C 
ATOM     17  CG  PRO A   2      -6.578   1.294  13.810  0.00  0.00    +0.000 C 
ATOM     18  CD  PRO A   2      -7.974   0.809  13.560  0.00  0.00    +0.000 C 
ATOM     19  N   ARG A   3      -7.580   4.899  11.356  0.00  0.00    +0.000 N 
ATOM     20  CA  ARG A   3      -7.174   5.449  10.059  0.00  0.00    +0.000 C 
ATOM     21  C   ARG A   3      -5.659   5.434   9.896  0.00  0.00    +0.000 C 
ATOM     22  O   ARG A   3      -5.150   5.308   8.789  0.00  0.00    +0.000 OA
ATOM     23  CB  ARG A   3      -7.704   6.870   9.916  0.00  0.00    +0.000 C 
ATOM     24  CG  ARG A   3      -9.209   6.916   9.716  0.00  0.00    +0.000 C 
ATOM     25  CD  ARG A   3      -9.572   7.783   8.534  0.00  0.00    +0.000 C 
ATOM     26  NE  ARG A   3     -10.984   7.646   8.190  0.00  0.00    +0.000 NA
ATOM     27  CZ  ARG A   3     -11.545   8.245   7.156  0.00  0.00    +0.000 C 
ATOM     28  NH1 ARG A   3     -10.843   9.029   6.361  0.00  0.00    +0.000 N 
ATOM     29  NH2 ARG A   3     -12.837   8.065   6.918  0.00  0.00    +0.000 NA
ATOM     30  N   LEU A   4      -4.969   5.547  11.020  0.00  0.00    +0.000 N 
ATOM     31  CA  LEU A   4      -3.512   5.541  10.985  0.00  0.00    +0.000 C 
ATOM     32  C   LEU A   4      -2.981   4.220  10.435  0.00  0.00    +0.000 C 
ATOM     33  O   LEU A   4      -2.094   4.202   9.582  0.00  0.00    +0.000 OA
ATOM     34  CB  LEU A   4      -2.963   5.785  12.390  0.00  0.00    +0.000 C 
ATOM     35  CG  LEU A   4      -3.030   7.240  12.851  0.00  0.00    +0.000 C 
ATOM     36  CD1 LEU A   4      -1.993   8.076  12.122  0.00  0.00    +0.000 C 
ATOM     37  CD2 LEU A   4      -2.810   7.321  14.358  0.00  0.00    +0.000 C 
ATOM     38  N   LYS A   5      -3.543   3.128  10.929  0.00  0.00    +0.000 N 
ATOM     39  CA  LYS A   5      -3.108   1.810  10.470  0.00  0.00    +0.000 C 
ATOM     40  C   LYS A   5      -3.523   1.589   9.021  0.00  0.00    +0.000 C 
ATOM     41  O   LYS A   5      -2.766   1.014   8.227  0.00  0.00    +0.000 OA
ATOM     42  CB  LYS A   5      -3.709   0.724  11.355  0.00  0.00    +0.000 C 
ATOM     43  CG  LYS A   5      -2.986  -0.603  11.171  0.00  0.00    +0.000 C 
ATOM     44  CD  LYS A   5      -3.570  -1.688  12.058  0.00  0.00    +0.000 C 
ATOM     45  CE  LYS A   5      -2.754  -2.967  11.907  0.00  0.00    +0.000 C 
ATOM     46  NZ  LYS A   5      -3.366  -4.087  12.643  0.00  0.00    +0.000 N 
ATOM     47  N   LEU A   6      -4.716   2.048   8.683  0.00  0.00    +0.000 N 
ATOM     48  CA  LEU A   6      -5.205   1.894   7.317  0.00  0.00    +0.000 C 
ATOM     49  C   LEU A   6      -4.310   2.645   6.337  0.00  0.00    +0.000 C 
ATOM     50  O   LEU A   6      -3.986   2.136   5.255  0.00  0.00    +0.000 OA
ATOM     51  CB  LEU A   6      -6.637   2.421   7.209  0.00  0.00    +0.000 C 
ATOM     52  CG  LEU A   6      -7.304   2.179   5.846  0.00  0.00    +0.000 C 
ATOM     53  CD1 LEU A   6      -7.533   0.690   5.621  0.00  0.00    +0.000 C 
ATOM     54  CD2 LEU A   6      -8.626   2.929   5.763  0.00  0.00    +0.000 C 
ATOM     55  N   LYS A   7      -3.910   3.837   6.738  0.00  0.00    +0.000 N 
ATOM     56  CA  LYS A   7      -3.030   4.641   5.886  0.00  0.00    +0.000 C 
ATOM     57  C   LYS A   7      -1.659   3.980   5.748  0.00  0.00    +0.000 C 
ATOM     58  O   LYS A   7      -1.072   3.965   4.663  0.00  0.00    +0.000 OA
ATOM     59  CB  LYS A   7      -2.889   6.041   6.483  0.00  0.00    +0.000 C 
ATOM     60  CG  LYS A   7      -2.512   7.066   5.428  0.00  0.00    +0.000 C 
ATOM     61  CD  LYS A   7      -2.659   8.476   5.980  0.00  0.00    +0.000 C 
ATOM     62  CE  LYS A   7      -2.418   9.497   4.891  0.00  0.00    +0.000 C 
ATOM     63  NZ  LYS A   7      -2.675  10.872   5.382  0.00  0.00    +0.000 N 
ATOM     64  N   SER A   8      -1.181   3.429   6.854  0.00  0.00    +0.000 N 
ATOM     65  CA  SER A   8       0.115   2.762   6.843  0.00  0.00    +0.000 C 
ATOM     66  C   SER A   8       0.082   1.539   5.934  0.00  0.00    +0.000 C 
ATOM     67  O   SER A   8       1.014   1.300   5.160  0.00  0.00    +0.000 OA
ATOM     68  CB  SER A   8       0.499   2.350   8.270  0.00  0.00    +0.000 C 
ATOM     69  OG  SER A   8       1.815   1.830   8.295  0.00  0.00    +0.000 OA
ATOM     70  N   ASP A   9      -1.006   0.781   6.038  0.00  0.00    +0.000 N 
ATOM     71  CA  ASP A   9      -1.164  -0.404   5.196  0.00  0.00    +0.000 C 
ATOM     72  C   ASP A   9      -1.272  -0.017   3.729  0.00  0.00    +0.000 C 
ATOM     73  O   ASP A   9      -0.692  -0.670   2.860  0.00  0.00    +0.000 OA
ATOM     74  CB  ASP A   9      -2.407  -1.186   5.618  0.00  0.00    +0.000 C 
ATOM     75  CG  ASP A   9      -2.148  -2.083   6.809  0.00  0.00    +0.000 C 
ATOM     76  OD1 ASP A   9      -1.168  -1.841   7.537  0.00  0.00    +0.000 OA
ATOM     77  OD2 ASP A   9      -2.934  -3.028   7.010  0.00  0.00    +0.000 OA
ATOM     78  N   ALA A  10      -2.013   1.042   3.475  0.00  0.00    +0.000 N 
ATOM     79  CA  ALA A  10      -2.175   1.519   2.105  0.00  0.00    +0.000 C 
ATOM     80  C   ALA A  10      -0.836   1.944   1.519  0.00  0.00    +0.000 C 
ATOM     81  O   ALA A  10      -0.539   1.653   0.358  0.00  0.00    +0.000 OA
ATOM     82  CB  ALA A  10      -3.157   2.681   2.072  0.00  0.00    +0.000 C 
ATOM     83  N   GLU A  11      -0.053   2.627   2.334  0.00  0.00    +0.000 N 
ATOM     84  CA  GLU A  11       1.265   3.063   1.886  0.00  0.00    +0.000 C 
ATOM     85  C   GLU A  11       2.178   1.874   1.625  0.00  0.00    +0.000 C 
ATOM     86  O   GLU A  11       2.942   1.868   0.660  0.00  0.00    +0.000 OA
ATOM     87  CB  GLU A  11       1.899   3.981   2.931  0.00  0.00    +0.000 C 
ATOM     88  CG  GLU A  11       1.431   5.420   2.799  0.00  0.00    +0.000 C 
ATOM     89  CD  GLU A  11       2.220   6.352   3.688  0.00  0.00    +0.000 C 
ATOM     90  OE1 GLU A  11       3.455   6.224   3.714  0.00  0.00    +0.000 OA
ATOM     91  OE2 GLU A  11       1.600   7.206   4.352  0.00  0.00    +0.000 OA
ATOM     92  N   ALA A  12       2.079   0.879   2.485  0.00  0.00    +0.000 N 
ATOM     93  CA  ALA A  12       2.897  -0.321   2.328  0.00  0.00    +0.000 C 
ATOM     94  C   ALA A  12       2.548  -1.043   1.032  0.00  0.00    +0.000 C 
ATOM     95  O   ALA A  12       3.434  -1.492   0.300  0.00  0.00    +0.000 OA
ATOM     96  CB  ALA A  12       2.703  -1.246   3.524  0.00  0.00    +0.000 C 
ATOM     97  N   ILE A  13       1.256  -1.143   0.778  0.00  0.00    +0.000 N 
ATOM     98  CA  ILE A  13       0.797  -1.805  -0.444  0.00  0.00    +0.000 C 
ATOM     99  C   ILE A  13       1.232  -1.012  -1.672  0.00  0.00    +0.000 C 
ATOM    100  O   ILE A  13       1.687  -1.579  -2.667  0.00  0.00    +0.000 OA
ATOM    101  CB  ILE A  13      -0.734  -1.976  -0.432  0.00  0.00    +0.000 C 
ATOM    102  CG1 ILE A  13      -1.141  -2.940   0.684  0.00  0.00    +0.000 C 
ATOM    103  CG2 ILE A  13      -1.219  -2.506  -1.784  0.00  0.00    +0.000 C 
ATOM    104  CD1 ILE A  13      -2.628  -2.898   0.980  0.00  0.00    +0.000 C 
ATOM    105  N   ALA A  14       1.081   0.288  -1.581  0.00  0.00    +0.000 N 
ATOM    106  CA  ALA A  14       1.465   1.149  -2.691  0.00  0.00    +0.000 C 
ATOM    107  C   ALA A  14       2.957   1.042  -2.967  0.00  0.00    +0.000 C 
ATOM    108  O   ALA A  14       3.380   0.983  -4.124  0.00  0.00    +0.000 OA
ATOM    109  CB  ALA A  14       1.089   2.595  -2.383  0.00  0.00    +0.000 C 
ATOM    110  N   SER A  15       3.735   1.001  -1.900  0.00  0.00    +0.000 N 
ATOM    111  CA  SER A  15       5.182   0.882  -2.034  0.00  0.00    +0.000 C 
ATOM    112  C   SER A  15       5.555  -0.454  -2.661  0.00  0.00    +0.000 C 
ATOM    113  O   SER A  15       6.444  -0.527  -3.509  0.00  0.00    +0.000 OA
ATOM    114  CB  SER A  15       5.847   1.023  -0.663  0.00  0.00    +0.000 C 
ATOM    115  OG  SER A  15       7.253   1.093  -0.793  0.00  0.00    +0.000 OA
ATOM    116  N   ARG A  16       4.854  -1.494  -2.234  0.00  0.00    +0.000 N 
ATOM    117  CA  ARG A  16       5.113  -2.828  -2.780  0.00  0.00    +0.000 C 
ATOM    118  C   ARG A  16       4.734  -2.891  -4.251  0.00  0.00    +0.000 C 
ATOM    119  O   ARG A  16       5.437  -3.500  -5.056  0.00  0.00    +0.000 OA
ATOM    120  CB  ARG A  16       4.333  -3.879  -1.994  0.00  0.00    +0.000 C 
ATOM    121  CG  ARG A  16       4.993  -4.224  -0.675  0.00  0.00    +0.000 C 
ATOM    122  CD  ARG A  16       4.269  -5.366   0.007  0.00  0.00    +0.000 C 
ATOM    123  NE  ARG A  16       4.885  -5.696   1.286  0.00  0.00    +0.000 NA
ATOM    124  CZ  ARG A  16       4.633  -6.802   1.965  0.00  0.00    +0.000 C 
ATOM    125  NH1 ARG A  16       3.778  -7.694   1.505  0.00  0.00    +0.000 N 
ATOM    126  NH2 ARG A  16       5.235  -7.015   3.121  0.00  0.00    +0.000 NA
ATOM    127  N   LEU A  17       3.622  -2.272  -4.587  0.00  0.00    +0.000 N 
ATOM    128  CA  LEU A  17       3.174  -2.256  -5.977  0.00  0.00    +0.000 C 
ATOM    129  C   LEU A  17       4.165  -1.502  -6.847  0.00  0.00    +0.000 C 
ATOM    130  O   LEU A  17       4.509  -1.953  -7.942  0.00  0.00    +0.000 OA
ATOM    131  CB  LEU A  17       1.790  -1.615  -6.074  0.00  0.00    +0.000 C 
ATOM    132  CG  LEU A  17       0.632  -2.575  -5.803  0.00  0.00    +0.000 C 
ATOM    133  CD1 LEU A  17       0.422  -3.495  -6.988  0.00  0.00    +0.000 C 
ATOM    134  CD2 LEU A  17      -0.638  -1.803  -5.500  0.00  0.00    +0.000 C 
ATOM    135  N   ASP A  18       4.612  -0.367  -6.354  0.00  0.00    +0.000 N 
ATOM    136  CA  ASP A  18       5.573   0.438  -7.089  0.00  0.00    +0.000 C 
ATOM    137  C   ASP A  18       6.897  -0.305  -7.237  0.00  0.00    +0.000 C 
ATOM    138  O   ASP A  18       7.502  -0.313  -8.298  0.00  0.00    +0.000 OA
ATOM    139  CB  ASP A  18       5.791   1.769  -6.373  0.00  0.00    +0.000 C 
ATOM    140  CG  ASP A  18       6.374   2.820  -7.306  0.00  0.00    +0.000 C 
ATOM    141  OD1 ASP A  18       5.888   2.932  -8.445  0.00  0.00    +0.000 OA
ATOM    142  OD2 ASP A  18       7.306   3.527  -6.888  0.00  0.00    +0.000 OA
ATOM    143  N   GLY A  19       7.320  -0.946  -6.159  0.00  0.00    +0.000 N 
ATOM    144  CA  GLY A  19       8.554  -1.710  -6.179  0.00  0.00    +0.000 C 
ATOM    145  C   GLY A  19       8.456  -2.916  -7.098  0.00  0.00    +0.000 C 
ATOM    146  O   GLY A  19       9.404  -3.243  -7.814  0.00  0.00    +0.000 OA
ATOM    147  N   SER A  20       7.299  -3.560  -7.064  0.00  0.00    +0.000 N 
ATOM    148  CA  SER A  20       7.073  -4.721  -7.919  0.00  0.00    +0.000 C 
ATOM    149  C   SER A  20       7.057  -4.304  -9.387  0.00  0.00    +0.000 C 
ATOM    150  O   SER A  20       7.538  -5.038 -10.261  0.00  0.00    +0.000 OA
ATOM    151  CB  SER A  20       5.748  -5.393  -7.561  0.00  0.00    +0.000 C 
ATOM    152  OG  SER A  20       5.634  -6.647  -8.211  0.00  0.00    +0.000 OA
ATOM    153  N   THR A  21       6.500  -3.129  -9.639  0.00  0.00    +0.000 N 
ATOM    154  CA  THR A  21       6.456  -2.619 -11.012  0.00  0.00    +0.000 C 
ATOM    155  C   THR A  21       7.850  -2.228 -11.488  0.00  0.00    +0.000 C 
ATOM    156  O   THR A  21       8.222  -2.487 -12.633  0.00  0.00    +0.000 OA
ATOM    157  CB  THR A  21       5.529  -1.404 -11.103  0.00  0.00    +0.000 C 
ATOM    158  OG1 THR A  21       4.237  -1.764 -10.619  0.00  0.00    +0.000 OA
ATOM    159  CG2 THR A  21       5.392  -0.931 -12.542  0.00  0.00    +0.000 C 
ATOM    160  N   ALA A  22       8.604  -1.611 -10.601  0.00  0.00    +0.000 N 
ATOM    161  CA  ALA A  22       9.971  -1.209 -10.951  0.00  0.00    +0.000 C 
ATOM    162  C   ALA A  22      10.864  -2.425 -11.093  0.00  0.00    +0.000 C 
ATOM    163  O   ALA A  22      11.641  -2.526 -12.051  0.00  0.00    +0.000 OA
ATOM    164  CB  ALA A  22      10.520  -0.271  -9.877  0.00  0.00    +0.000 C 
ATOM    165  N   TRP A  23      10.761  -3.344 -10.159  0.00  0.00    +0.000 N 
ATOM    166  CA  TRP A  23      11.555  -4.574 -10.179  0.00  0.00    +0.000 C 
ATOM    167  C   TRP A  23      10.621  -5.780 -10.254  0.00  0.00    +0.000 C 
ATOM    168  O   TRP A  23       9.964  -6.135  -9.281  0.00  0.00    +0.000 OA
ATOM    169  CB  TRP A  23      12.418  -4.670  -8.930  0.00  0.00    +0.000 C 
ATOM    170  CG  TRP A  23      13.585  -3.737  -8.963  0.00  0.00    +0.000 C 
ATOM    171  CD1 TRP A  23      13.653  -2.489  -8.418  0.00  0.00    +0.000 C 
ATOM    172  CD2 TRP A  23      14.855  -3.974  -9.602  0.00  0.00    +0.000 A 
ATOM    173  NE1 TRP A  23      14.886  -1.939  -8.674  0.00  0.00    +0.000 NA
ATOM    174  CE2 TRP A  23      15.645  -2.820  -9.397  0.00  0.00    +0.000 A 
ATOM    175  CE3 TRP A  23      15.399  -5.051 -10.319  0.00  0.00    +0.000 A 
ATOM    176  CZ2 TRP A  23      16.943  -2.719  -9.880  0.00  0.00    +0.000 A 
ATOM    177  CZ3 TRP A  23      16.691  -4.948 -10.805  0.00  0.00    +0.000 A 
ATOM    178  CH2 TRP A  23      17.454  -3.790 -10.587  0.00  0.00    +0.000 A 
ATOM    179  N   THR A  24      10.595  -6.381 -11.405  0.00  0.00    +0.000 N 
ATOM    180  CA  THR A  24       9.755  -7.560 -11.606  0.00  0.00    +0.000 C 
ATOM    181  C   THR A  24      10.256  -8.711 -10.743  0.00  0.00    +0.000 C 
ATOM    182  O   THR A  24      11.347  -9.231 -10.947  0.00  0.00    +0.000 OA
ATOM    183  CB  THR A  24       9.770  -7.994 -13.084  0.00  0.00    +0.000 C 
ATOM    184  OG1 THR A  24       9.558  -6.861 -13.913  0.00  0.00    +0.000 OA
ATOM    185  CG2 THR A  24       8.679  -9.005 -13.355  0.00  0.00    +0.000 C 
ATOM    186  N   ASP A  25       9.422  -9.109  -9.767  0.00  0.00    +0.000 N 
ATOM    187  CA  ASP A  25       9.783 -10.193  -8.863  0.00  0.00    +0.000 C 
ATOM    188  C   ASP A  25       9.630 -11.540  -9.564  0.00  0.00    +0.000 C 
ATOM    189  O   ASP A  25       8.574 -11.800 -10.158  0.00  0.00    +0.000 OA
ATOM    190  CB  ASP A  25       8.920 -10.137  -7.613  0.00  0.00    +0.000 C 
ATOM    191  CG  ASP A  25       9.370 -11.125  -6.550  0.00  0.00    +0.000 C 
ATOM    192  OD1 ASP A  25      10.571 -11.155  -6.247  0.00  0.00    +0.000 OA
ATOM    193  OD2 ASP A  25       8.515 -11.854  -6.019  0.00  0.00    +0.000 OA
ATOM    194  H   PHE A   1     -12.505  -0.064  12.613  0.00  0.00    +0.000 HD
ATOM    195  H   PHE A   1     -12.445   1.470  11.968  0.00  0.00    +0.000 HD
ATOM    196  H   ARG A   3      -8.016   5.484  12.017  0.00  0.00    +0.000 HD
ATOM    197  H   ARG A   3     -11.277   9.468   5.594  0.00  0.00    +0.000 HD
ATOM    198  H   ARG A   3      -9.885   9.175   6.534  0.00  0.00    +0.000 HD
ATOM    199  H   ARG A   3     -13.262   8.508   6.149  0.00  0.00    +0.000 HD
ATOM    200  H   ARG A   3     -13.371   7.488   7.511  0.00  0.00    +0.000 HD
ATOM    201  H   ARG A   3     -13.511   7.612   6.361  0.00  0.00    +0.000 HD
ATOM    202  H   LEU A   4      -5.440   5.635  11.880  0.00  0.00    +0.000 HD
ATOM    203  H   LYS A   5      -4.254   3.203  11.606  0.00  0.00    +0.000 HD
ATOM    204  H   LYS A   5      -3.405  -3.860  13.637  0.00  0.00    +0.000 HD
ATOM    205  H   LYS A   5      -2.806  -4.929  12.509  0.00  0.00    +0.000 HD
ATOM    206  H   LYS A   5      -4.311  -4.248  12.293  0.00  0.00    +0.000 HD
ATOM    207  H   LEU A   6      -5.277   2.496   9.356  0.00  0.00    +0.000 HD
ATOM    208  H   LYS A   7      -4.203   4.186   7.610  0.00  0.00    +0.000 HD
ATOM    209  H   LYS A   7      -2.043  11.080   6.155  0.00  0.00    +0.000 HD
ATOM    210  H   LYS A   7      -3.641  10.944   5.703  0.00  0.00    +0.000 HD
ATOM    211  H   LYS A   7      -2.518  11.538   4.626  0.00  0.00    +0.000 HD
ATOM    212  H   SER A   8      -1.704   3.470   7.687  0.00  0.00    +0.000 HD
ATOM    213  H   SER A   8       1.865   1.049   7.722  0.00  0.00    +0.000 HD
ATOM    214  H   ASP A   9      -1.709   1.019   6.685  0.00  0.00    +0.000 HD
ATOM    215  H   ASP A   9      -0.607  -1.117   7.342  0.00  0.00    +0.000 HD
ATOM    216  H   ALA A  10      -2.460   1.515   4.214  0.00  0.00    +0.000 HD
ATOM    217  H   GLU A  11      -0.359   2.842   3.245  0.00  0.00    +0.000 HD
ATOM    218  H   GLU A  11       0.666   7.258   4.294  0.00  0.00    +0.000 HD
ATOM    219  H   ALA A  12       1.449   0.946   3.239  0.00  0.00    +0.000 HD
ATOM    220  H   ILE A  13       0.600  -0.772   1.412  0.00  0.00    +0.000 HD
ATOM    221  H   ALA A  14       0.707   0.683  -0.760  0.00  0.00    +0.000 HD
ATOM    222  H   SER A  15       3.333   1.051  -1.003  0.00  0.00    +0.000 HD
ATOM    223  H   SER A  15       7.580   0.280  -1.209  0.00  0.00    +0.000 HD
ATOM    224  H   ARG A  16       4.158  -1.370  -1.549  0.00  0.00    +0.000 HD
ATOM    225  H   ARG A  16       3.325  -7.543   0.644  0.00  0.00    +0.000 HD
ATOM    226  H   ARG A  16       3.593  -8.511   2.022  0.00  0.00    +0.000 HD
ATOM    227  H   ARG A  16       5.875  -6.354   3.472  0.00  0.00    +0.000 HD
ATOM    228  H   ARG A  16       5.044  -7.835   3.632  0.00  0.00    +0.000 HD
ATOM    229  H   ARG A  16       4.454  -7.596   2.972  0.00  0.00    +0.000 HD
ATOM    230  H   LEU A  17       3.088  -1.817  -3.896  0.00  0.00    +0.000 HD
ATOM    231  H   ASP A  18       4.291  -0.059  -5.476  0.00  0.00    +0.000 HD
ATOM    232  H   ASP A  18       7.636   3.402  -6.020  0.00  0.00    +0.000 HD
ATOM    233  H   GLY A  19       6.789  -0.904  -5.331  0.00  0.00    +0.000 HD
ATOM    234  H   SER A  20       6.587  -3.253  -6.458  0.00  0.00    +0.000 HD
ATOM    235  H   SER A  20       6.359  -7.225  -7.927  0.00  0.00    +0.000 HD
ATOM    236  H   THR A  21       6.116  -2.598  -8.904  0.00  0.00    +0.000 HD
ATOM    237  H   THR A  21       3.875  -2.480 -11.165  0.00  0.00    +0.000 HD
ATOM    238  H   ALA A  22       8.250  -1.420  -9.703  0.00  0.00    +0.000 HD
ATOM    239  H   TRP A  23      10.127  -3.200  -9.419  0.00  0.00    +0.000 HD
ATOM    240  H   THR A  24      11.145  -6.040 -12.147  0.00  0.00    +0.000 HD
ATOM    241  H   THR A  24       8.694  -6.469 -13.711  0.00  0.00    +0.000 HD
ATOM    242  H   ASP A  25       8.552  -8.660  -9.661  0.00  0.00    +0.000 HD
ATOM    243  H   ASP A  25       7.618 -11.793  -6.283  0.00  0.00    +0.000 HD
TER 
