MODEL 1
REMARK VINA RESULT:      -4.7      0.000      0.000
REMARK  Name = ox1_esm1_f8_ligand
REMARK  5 active torsions:
REMARK  status: ('A' for Active; 'I' for Inactive)
REMARK    1  A    between atoms: C_1  and  O_2
REMARK    2  A    between atoms: O_2  and  C_3
REMARK    3  A    between atoms: C_6  and  C_7
REMARK    4  A    between atoms: C_7  and  C_9
REMARK    5  A    between atoms: C_15  and  O_16
REMARK                            x       y       z     vdW  Elec       q    Type
REMARK                         _______ _______ _______ _____ _____    ______ ____
ROOT
ATOM      1  C   UNL     1       8.677  -6.110  -4.792  0.00  0.00    +0.000 A 
ATOM      2  C   UNL     1       8.021  -5.651  -3.650  0.00  0.00    +0.000 A 
ATOM      3  C   UNL     1       6.828  -6.237  -3.247  0.00  0.00    +0.000 A 
ATOM      4  C   UNL     1       6.278  -7.289  -3.959  0.00  0.00    +0.000 A 
ATOM      5  C   UNL     1       6.931  -7.754  -5.119  0.00  0.00    +0.000 A 
ATOM      6  C   UNL     1       8.124  -7.155  -5.517  0.00  0.00    +0.000 A 
ENDROOT
BRANCH   1   8
ATOM      7  C   UNL     1      10.446  -4.512  -4.307  0.00  0.00    +0.000 C 
ATOM      8  O   UNL     1       9.851  -5.509  -5.142  0.00  0.00    +0.000 OA
ENDBRANCH   1   8
BRANCH   4   9
ATOM      9  C   UNL     1       4.998  -7.924  -3.508  0.00  0.00    +0.000 C 
ATOM     10  O   UNL     1       5.014  -9.079  -3.091  0.00  0.00    +0.000 OA
BRANCH   9  11
ATOM     11  C   UNL     1       3.705  -7.181  -3.581  0.00  0.00    +0.000 A 
ATOM     12  C   UNL     1       2.785  -7.293  -2.604  0.00  0.00    +0.000 A 
ATOM     13  C   UNL     1       1.583  -6.609  -2.585  0.00  0.00    +0.000 A 
ATOM     14  C   UNL     1       1.274  -5.789  -3.644  0.00  0.00    +0.000 A 
ATOM     15  C   UNL     1       2.189  -5.657  -4.680  0.00  0.00    +0.000 A 
ATOM     16  C   UNL     1       3.394  -6.359  -4.641  0.00  0.00    +0.000 A 
ENDBRANCH   9  11
ENDBRANCH   4   9
BRANCH   5  17
ATOM     17  O   UNL     1       6.380  -8.779  -5.833  0.00  0.00    +0.000 OA
ATOM     18  H   UNL     1       6.753  -9.023  -6.717  0.00  0.00    +0.000 HD
ENDBRANCH   5  17
TORSDOF 4
ENDMDL
MODEL 2
REMARK VINA RESULT:      -4.7      0.531      1.258
REMARK  Name = ox1_esm1_f8_ligand
REMARK  5 active torsions:
REMARK  status: ('A' for Active; 'I' for Inactive)
REMARK    1  A    between atoms: C_1  and  O_2
REMARK    2  A    between atoms: O_2  and  C_3
REMARK    3  A    between atoms: C_6  and  C_7
REMARK    4  A    between atoms: C_7  and  C_9
REMARK    5  A    between atoms: C_15  and  O_16
REMARK                            x       y       z     vdW  Elec       q    Type
REMARK                         _______ _______ _______ _____ _____    ______ ____
ROOT
ATOM      1  C   UNL     1       8.660  -6.047  -4.587  0.00  0.00    +0.000 A 
ATOM      2  C   UNL     1       7.970  -5.669  -3.434  0.00  0.00    +0.000 A 
ATOM      3  C   UNL     1       6.770  -6.285  -3.107  0.00  0.00    +0.000 A 
ATOM      4  C   UNL     1       6.245  -7.287  -3.905  0.00  0.00    +0.000 A 
ATOM      5  C   UNL     1       6.932  -7.669  -5.075  0.00  0.00    +0.000 A 
ATOM      6  C   UNL     1       8.133  -7.040  -5.397  0.00  0.00    +0.000 A 
ENDROOT
BRANCH   1   8
ATOM      7  C   UNL     1      10.749  -5.949  -5.830  0.00  0.00    +0.000 C 
ATOM      8  O   UNL     1       9.840  -5.419  -4.862  0.00  0.00    +0.000 OA
ENDBRANCH   1   8
BRANCH   4   9
ATOM      9  C   UNL     1       4.956  -7.957  -3.534  0.00  0.00    +0.000 C 
ATOM     10  O   UNL     1       4.963  -9.146  -3.226  0.00  0.00    +0.000 OA
BRANCH   9  11
ATOM     11  C   UNL     1       3.667  -7.205  -3.558  0.00  0.00    +0.000 A 
ATOM     12  C   UNL     1       3.368  -6.372  -4.573  0.00  0.00    +0.000 A 
ATOM     13  C   UNL     1       2.180  -5.671  -4.681  0.00  0.00    +0.000 A 
ATOM     14  C   UNL     1       1.250  -5.791  -3.676  0.00  0.00    +0.000 A 
ATOM     15  C   UNL     1       1.525  -6.628  -2.603  0.00  0.00    +0.000 A 
ATOM     16  C   UNL     1       2.733  -7.323  -2.552  0.00  0.00    +0.000 A 
ENDBRANCH   9  11
ENDBRANCH   4   9
BRANCH   5  17
ATOM     17  O   UNL     1       6.406  -8.644  -5.873  0.00  0.00    +0.000 OA
ATOM     18  H   UNL     1       5.753  -9.289  -5.501  0.00  0.00    +0.000 HD
ENDBRANCH   5  17
TORSDOF 4
ENDMDL
MODEL 3
REMARK VINA RESULT:      -4.4      1.678      6.038
REMARK  Name = ox1_esm1_f8_ligand
REMARK  5 active torsions:
REMARK  status: ('A' for Active; 'I' for Inactive)
REMARK    1  A    between atoms: C_1  and  O_2
REMARK    2  A    between atoms: O_2  and  C_3
REMARK    3  A    between atoms: C_6  and  C_7
REMARK    4  A    between atoms: C_7  and  C_9
REMARK    5  A    between atoms: C_15  and  O_16
REMARK                            x       y       z     vdW  Elec       q    Type
REMARK                         _______ _______ _______ _____ _____    ______ ____
ROOT
ATOM      1  C   UNL     1       1.571  -6.074  -3.532  0.00  0.00    +0.000 A 
ATOM      2  C   UNL     1       2.384  -5.855  -4.644  0.00  0.00    +0.000 A 
ATOM      3  C   UNL     1       3.619  -6.482  -4.740  0.00  0.00    +0.000 A 
ATOM      4  C   UNL     1       4.058  -7.341  -3.747  0.00  0.00    +0.000 A 
ATOM      5  C   UNL     1       3.245  -7.562  -2.616  0.00  0.00    +0.000 A 
ATOM      6  C   UNL     1       2.011  -6.923  -2.528  0.00  0.00    +0.000 A 
ENDROOT
BRANCH   1   8
ATOM      7  C   UNL     1      -0.705  -5.832  -4.356  0.00  0.00    +0.000 C 
ATOM      8  O   UNL     1       0.362  -5.442  -3.487  0.00  0.00    +0.000 OA
ENDBRANCH   1   8
BRANCH   4   9
ATOM      9  C   UNL     1       5.386  -8.026  -3.867  0.00  0.00    +0.000 C 
ATOM     10  O   UNL     1       5.447  -9.246  -3.745  0.00  0.00    +0.000 OA
BRANCH   9  11
ATOM     11  C   UNL     1       6.634  -7.242  -4.109  0.00  0.00    +0.000 A 
ATOM     12  C   UNL     1       7.499  -7.597  -5.079  0.00  0.00    +0.000 A 
ATOM     13  C   UNL     1       8.654  -6.901  -5.384  0.00  0.00    +0.000 A 
ATOM     14  C   UNL     1       8.975  -5.795  -4.634  0.00  0.00    +0.000 A 
ATOM     15  C   UNL     1       8.118  -5.403  -3.615  0.00  0.00    +0.000 A 
ATOM     16  C   UNL     1       6.958  -6.134  -3.359  0.00  0.00    +0.000 A 
ENDBRANCH   9  11
ENDBRANCH   4   9
BRANCH   5  17
ATOM     17  O   UNL     1       3.685  -8.395  -1.628  0.00  0.00    +0.000 OA
ATOM     18  H   UNL     1       4.302  -8.054  -0.932  0.00  0.00    +0.000 HD
ENDBRANCH   5  17
TORSDOF 4
ENDMDL
MODEL 4
REMARK VINA RESULT:      -4.3      1.508      1.604
REMARK  Name = ox1_esm1_f8_ligand
REMARK  5 active torsions:
REMARK  status: ('A' for Active; 'I' for Inactive)
REMARK    1  A    between atoms: C_1  and  O_2
REMARK    2  A    between atoms: O_2  and  C_3
REMARK    3  A    between atoms: C_6  and  C_7
REMARK    4  A    between atoms: C_7  and  C_9
REMARK    5  A    between atoms: C_15  and  O_16
REMARK                            x       y       z     vdW  Elec       q    Type
REMARK                         _______ _______ _______ _____ _____    ______ ____
ROOT
ATOM      1  C   UNL     1       8.508  -7.538  -3.378  0.00  0.00    +0.000 A 
ATOM      2  C   UNL     1       7.649  -6.446  -3.250  0.00  0.00    +0.000 A 
ATOM      3  C   UNL     1       6.362  -6.508  -3.766  0.00  0.00    +0.000 A 
ATOM      4  C   UNL     1       5.905  -7.650  -4.400  0.00  0.00    +0.000 A 
ATOM      5  C   UNL     1       6.770  -8.755  -4.541  0.00  0.00    +0.000 A 
ATOM      6  C   UNL     1       8.061  -8.680  -4.024  0.00  0.00    +0.000 A 
ENDROOT
BRANCH   1   8
ATOM      7  C   UNL     1      10.354  -6.154  -2.604  0.00  0.00    +0.000 C 
ATOM      8  O   UNL     1       9.761  -7.433  -2.847  0.00  0.00    +0.000 OA
ENDBRANCH   1   8
BRANCH   4   9
ATOM      9  C   UNL     1       4.508  -7.712  -4.940  0.00  0.00    +0.000 C 
ATOM     10  O   UNL     1       4.303  -8.266  -6.016  0.00  0.00    +0.000 OA
BRANCH   9  11
ATOM     11  C   UNL     1       3.371  -7.089  -4.199  0.00  0.00    +0.000 A 
ATOM     12  C   UNL     1       2.935  -7.608  -3.035  0.00  0.00    +0.000 A 
ATOM     13  C   UNL     1       1.913  -7.066  -2.276  0.00  0.00    +0.000 A 
ATOM     14  C   UNL     1       1.264  -5.949  -2.745  0.00  0.00    +0.000 A 
ATOM     15  C   UNL     1       1.673  -5.391  -3.949  0.00  0.00    +0.000 A 
ATOM     16  C   UNL     1       2.719  -5.970  -4.667  0.00  0.00    +0.000 A 
ENDBRANCH   9  11
ENDBRANCH   4   9
BRANCH   5  17
ATOM     17  O   UNL     1       6.327  -9.875  -5.183  0.00  0.00    +0.000 OA
ATOM     18  H   UNL     1       6.945 -10.632  -5.341  0.00  0.00    +0.000 HD
ENDBRANCH   5  17
TORSDOF 4
ENDMDL
MODEL 5
REMARK VINA RESULT:      -4.3      2.216      2.814
REMARK  Name = ox1_esm1_f8_ligand
REMARK  5 active torsions:
REMARK  status: ('A' for Active; 'I' for Inactive)
REMARK    1  A    between atoms: C_1  and  O_2
REMARK    2  A    between atoms: O_2  and  C_3
REMARK    3  A    between atoms: C_6  and  C_7
REMARK    4  A    between atoms: C_7  and  C_9
REMARK    5  A    between atoms: C_15  and  O_16
REMARK                            x       y       z     vdW  Elec       q    Type
REMARK                         _______ _______ _______ _____ _____    ______ ____
ROOT
ATOM      1  C   UNL     1       8.265  -6.410  -1.041  0.00  0.00    +0.000 A 
ATOM      2  C   UNL     1       7.304  -7.405  -0.860  0.00  0.00    +0.000 A 
ATOM      3  C   UNL     1       6.382  -7.675  -1.862  0.00  0.00    +0.000 A 
ATOM      4  C   UNL     1       6.408  -6.977  -3.058  0.00  0.00    +0.000 A 
ATOM      5  C   UNL     1       7.372  -5.965  -3.246  0.00  0.00    +0.000 A 
ATOM      6  C   UNL     1       8.288  -5.698  -2.230  0.00  0.00    +0.000 A 
ENDROOT
BRANCH   1   8
ATOM      7  C   UNL     1       9.802  -7.275   0.635  0.00  0.00    +0.000 C 
ATOM      8  O   UNL     1       9.155  -6.187  -0.030  0.00  0.00    +0.000 OA
ENDBRANCH   1   8
BRANCH   4   9
ATOM      9  C   UNL     1       5.418  -7.288  -4.140  0.00  0.00    +0.000 C 
ATOM     10  O   UNL     1       5.809  -7.813  -5.179  0.00  0.00    +0.000 OA
BRANCH   9  11
ATOM     11  C   UNL     1       3.974  -6.946  -3.980  0.00  0.00    +0.000 A 
ATOM     12  C   UNL     1       3.269  -7.392  -2.923  0.00  0.00    +0.000 A 
ATOM     13  C   UNL     1       1.940  -7.087  -2.690  0.00  0.00    +0.000 A 
ATOM     14  C   UNL     1       1.270  -6.313  -3.606  0.00  0.00    +0.000 A 
ATOM     15  C   UNL     1       1.957  -5.845  -4.719  0.00  0.00    +0.000 A 
ATOM     16  C   UNL     1       3.301  -6.170  -4.897  0.00  0.00    +0.000 A 
ENDBRANCH   9  11
ENDBRANCH   4   9
BRANCH   5  17
ATOM     17  O   UNL     1       7.386  -5.263  -4.416  0.00  0.00    +0.000 OA
ATOM     18  H   UNL     1       7.145  -5.712  -5.265  0.00  0.00    +0.000 HD
ENDBRANCH   5  17
TORSDOF 4
ENDMDL
MODEL 6
REMARK VINA RESULT:      -4.3      4.441      6.958
REMARK  Name = ox1_esm1_f8_ligand
REMARK  5 active torsions:
REMARK  status: ('A' for Active; 'I' for Inactive)
REMARK    1  A    between atoms: C_1  and  O_2
REMARK    2  A    between atoms: O_2  and  C_3
REMARK    3  A    between atoms: C_6  and  C_7
REMARK    4  A    between atoms: C_7  and  C_9
REMARK    5  A    between atoms: C_15  and  O_16
REMARK                            x       y       z     vdW  Elec       q    Type
REMARK                         _______ _______ _______ _____ _____    ______ ____
ROOT
ATOM      1  C   UNL     1       7.984  -3.172   1.050  0.00  0.00    +0.000 A 
ATOM      2  C   UNL     1       8.482  -4.416   0.661  0.00  0.00    +0.000 A 
ATOM      3  C   UNL     1       9.043  -4.580  -0.598  0.00  0.00    +0.000 A 
ATOM      4  C   UNL     1       9.132  -3.517  -1.480  0.00  0.00    +0.000 A 
ATOM      5  C   UNL     1       8.624  -2.258  -1.097  0.00  0.00    +0.000 A 
ATOM      6  C   UNL     1       8.058  -2.107   0.167  0.00  0.00    +0.000 A 
ENDROOT
BRANCH   1   8
ATOM      7  C   UNL     1       6.144  -2.511   2.497  0.00  0.00    +0.000 C 
ATOM      8  O   UNL     1       7.450  -3.059   2.301  0.00  0.00    +0.000 OA
ENDBRANCH   1   8
BRANCH   4   9
ATOM      9  C   UNL     1       9.754  -3.700  -2.831  0.00  0.00    +0.000 C 
ATOM     10  O   UNL     1      10.639  -2.931  -3.195  0.00  0.00    +0.000 OA
BRANCH   9  11
ATOM     11  C   UNL     1       9.296  -4.788  -3.745  0.00  0.00    +0.000 A 
ATOM     12  C   UNL     1      10.109  -5.282  -4.699  0.00  0.00    +0.000 A 
ATOM     13  C   UNL     1       9.767  -6.311  -5.557  0.00  0.00    +0.000 A 
ATOM     14  C   UNL     1       8.506  -6.850  -5.471  0.00  0.00    +0.000 A 
ATOM     15  C   UNL     1       7.630  -6.359  -4.511  0.00  0.00    +0.000 A 
ATOM     16  C   UNL     1       8.032  -5.329  -3.662  0.00  0.00    +0.000 A 
ENDBRANCH   9  11
ENDBRANCH   4   9
BRANCH   5  17
ATOM     17  O   UNL     1       8.694  -1.213  -1.973  0.00  0.00    +0.000 OA
ATOM     18  H   UNL     1       7.896  -0.649  -2.135  0.00  0.00    +0.000 HD
ENDBRANCH   5  17
TORSDOF 4
ENDMDL
MODEL 7
REMARK VINA RESULT:      -4.2      4.419      6.926
REMARK  Name = ox1_esm1_f8_ligand
REMARK  5 active torsions:
REMARK  status: ('A' for Active; 'I' for Inactive)
REMARK    1  A    between atoms: C_1  and  O_2
REMARK    2  A    between atoms: O_2  and  C_3
REMARK    3  A    between atoms: C_6  and  C_7
REMARK    4  A    between atoms: C_7  and  C_9
REMARK    5  A    between atoms: C_15  and  O_16
REMARK                            x       y       z     vdW  Elec       q    Type
REMARK                         _______ _______ _______ _____ _____    ______ ____
ROOT
ATOM      1  C   UNL     1       1.824  -5.855  -3.282  0.00  0.00    +0.000 A 
ATOM      2  C   UNL     1       0.836  -5.142  -2.602  0.00  0.00    +0.000 A 
ATOM      3  C   UNL     1       0.343  -5.614  -1.393  0.00  0.00    +0.000 A 
ATOM      4  C   UNL     1       0.829  -6.784  -0.836  0.00  0.00    +0.000 A 
ATOM      5  C   UNL     1       1.823  -7.514  -1.520  0.00  0.00    +0.000 A 
ATOM      6  C   UNL     1       2.305  -7.034  -2.736  0.00  0.00    +0.000 A 
ENDROOT
BRANCH   1   8
ATOM      7  C   UNL     1       2.770  -6.207  -5.496  0.00  0.00    +0.000 C 
ATOM      8  O   UNL     1       2.283  -5.346  -4.463  0.00  0.00    +0.000 OA
ENDBRANCH   1   8
BRANCH   4   9
ATOM      9  C   UNL     1       0.302  -7.276   0.478  0.00  0.00    +0.000 C 
ATOM     10  O   UNL     1      -0.025  -8.454   0.591  0.00  0.00    +0.000 OA
BRANCH   9  11
ATOM     11  C   UNL     1       0.148  -6.350   1.638  0.00  0.00    +0.000 A 
ATOM     12  C   UNL     1       1.156  -5.541   2.018  0.00  0.00    +0.000 A 
ATOM     13  C   UNL     1       1.074  -4.632   3.059  0.00  0.00    +0.000 A 
ATOM     14  C   UNL     1      -0.090  -4.566   3.787  0.00  0.00    +0.000 A 
ATOM     15  C   UNL     1      -1.148  -5.394   3.437  0.00  0.00    +0.000 A 
ATOM     16  C   UNL     1      -1.017  -6.282   2.370  0.00  0.00    +0.000 A 
ENDBRANCH   9  11
ENDBRANCH   4   9
BRANCH   5  17
ATOM     17  O   UNL     1       2.290  -8.678  -0.982  0.00  0.00    +0.000 OA
ATOM     18  H   UNL     1       1.803  -9.526  -1.139  0.00  0.00    +0.000 HD
ENDBRANCH   5  17
TORSDOF 4
ENDMDL
MODEL 8
REMARK VINA RESULT:      -4.2      2.263      3.043
REMARK  Name = ox1_esm1_f8_ligand
REMARK  5 active torsions:
REMARK  status: ('A' for Active; 'I' for Inactive)
REMARK    1  A    between atoms: C_1  and  O_2
REMARK    2  A    between atoms: O_2  and  C_3
REMARK    3  A    between atoms: C_6  and  C_7
REMARK    4  A    between atoms: C_7  and  C_9
REMARK    5  A    between atoms: C_15  and  O_16
REMARK                            x       y       z     vdW  Elec       q    Type
REMARK                         _______ _______ _______ _____ _____    ______ ____
ROOT
ATOM      1  C   UNL     1       7.009  -8.627  -4.312  0.00  0.00    +0.000 A 
ATOM      2  C   UNL     1       6.712  -7.539  -3.492  0.00  0.00    +0.000 A 
ATOM      3  C   UNL     1       5.513  -6.855  -3.646  0.00  0.00    +0.000 A 
ATOM      4  C   UNL     1       4.591  -7.246  -4.602  0.00  0.00    +0.000 A 
ATOM      5  C   UNL     1       4.887  -8.341  -5.440  0.00  0.00    +0.000 A 
ATOM      6  C   UNL     1       6.095  -9.015  -5.280  0.00  0.00    +0.000 A 
ENDROOT
BRANCH   1   8
ATOM      7  C   UNL     1       8.406 -10.094  -2.964  0.00  0.00    +0.000 C 
ATOM      8  O   UNL     1       8.195  -9.273  -4.116  0.00  0.00    +0.000 OA
ENDBRANCH   1   8
BRANCH   4   9
ATOM      9  C   UNL     1       3.293  -6.511  -4.750  0.00  0.00    +0.000 C 
ATOM     10  O   UNL     1       3.007  -6.009  -5.834  0.00  0.00    +0.000 OA
BRANCH   9  11
ATOM     11  C   UNL     1       2.359  -6.363  -3.595  0.00  0.00    +0.000 A 
ATOM     12  C   UNL     1       1.578  -5.273  -3.470  0.00  0.00    +0.000 A 
ATOM     13  C   UNL     1       0.665  -5.083  -2.448  0.00  0.00    +0.000 A 
ATOM     14  C   UNL     1       0.563  -6.042  -1.468  0.00  0.00    +0.000 A 
ATOM     15  C   UNL     1       1.361  -7.175  -1.552  0.00  0.00    +0.000 A 
ATOM     16  C   UNL     1       2.255  -7.322  -2.612  0.00  0.00    +0.000 A 
ENDBRANCH   9  11
ENDBRANCH   4   9
BRANCH   5  17
ATOM     17  O   UNL     1       3.987  -8.716  -6.395  0.00  0.00    +0.000 OA
ATOM     18  H   UNL     1       4.298  -9.172  -7.217  0.00  0.00    +0.000 HD
ENDBRANCH   5  17
TORSDOF 4
ENDMDL
MODEL 9
REMARK VINA RESULT:      -4.2     16.147     18.403
REMARK  Name = ox1_esm1_f8_ligand
REMARK  5 active torsions:
REMARK  status: ('A' for Active; 'I' for Inactive)
REMARK    1  A    between atoms: C_1  and  O_2
REMARK    2  A    between atoms: O_2  and  C_3
REMARK    3  A    between atoms: C_6  and  C_7
REMARK    4  A    between atoms: C_7  and  C_9
REMARK    5  A    between atoms: C_15  and  O_16
REMARK                            x       y       z     vdW  Elec       q    Type
REMARK                         _______ _______ _______ _____ _____    ______ ____
ROOT
ATOM      1  C   UNL     1      -2.732   5.610  -0.130  0.00  0.00    +0.000 A 
ATOM      2  C   UNL     1      -2.183   6.102   1.055  0.00  0.00    +0.000 A 
ATOM      3  C   UNL     1      -2.935   6.923   1.884  0.00  0.00    +0.000 A 
ATOM      4  C   UNL     1      -4.239   7.257   1.560  0.00  0.00    +0.000 A 
ATOM      5  C   UNL     1      -4.799   6.770   0.360  0.00  0.00    +0.000 A 
ATOM      6  C   UNL     1      -4.032   5.951  -0.467  0.00  0.00    +0.000 A 
ENDROOT
BRANCH   1   8
ATOM      7  C   UNL     1      -2.518   3.673  -1.586  0.00  0.00    +0.000 C 
ATOM      8  O   UNL     1      -1.957   4.799  -0.907  0.00  0.00    +0.000 OA
ENDBRANCH   1   8
BRANCH   4   9
ATOM      9  C   UNL     1      -5.048   8.132   2.469  0.00  0.00    +0.000 C 
ATOM     10  O   UNL     1      -5.196   9.318   2.188  0.00  0.00    +0.000 OA
BRANCH   9  11
ATOM     11  C   UNL     1      -5.653   7.586   3.719  0.00  0.00    +0.000 A 
ATOM     12  C   UNL     1      -6.016   8.402   4.728  0.00  0.00    +0.000 A 
ATOM     13  C   UNL     1      -6.614   7.972   5.899  0.00  0.00    +0.000 A 
ATOM     14  C   UNL     1      -6.823   6.626   6.078  0.00  0.00    +0.000 A 
ATOM     15  C   UNL     1      -6.450   5.749   5.068  0.00  0.00    +0.000 A 
ATOM     16  C   UNL     1      -5.864   6.237   3.901  0.00  0.00    +0.000 A 
ENDBRANCH   9  11
ENDBRANCH   4   9
BRANCH   5  17
ATOM     17  O   UNL     1      -6.078   7.113   0.030  0.00  0.00    +0.000 OA
ATOM     18  H   UNL     1      -6.243   7.760  -0.701  0.00  0.00    +0.000 HD
ENDBRANCH   5  17
TORSDOF 4
ENDMDL
