REMARK  Name = ox2_esm1_f8_ligand
REMARK  5 active torsions:
REMARK  status: ('A' for Active; 'I' for Inactive)
REMARK    1  A    between atoms: C_1  and  O_2
REMARK    2  A    between atoms: O_2  and  C_3
REMARK    3  A    between atoms: C_6  and  C_7
REMARK    4  A    between atoms: C_7  and  C_9
REMARK    5  A    between atoms: C_15  and  O_16
REMARK                            x       y       z     vdW  Elec       q    Type
REMARK                         _______ _______ _______ _____ _____    ______ ____
ROOT
ATOM      1  C   UNL     1      -3.938   5.675   2.693  0.00  0.00    +0.000 A 
ATOM      2  C   UNL     1      -3.604   4.330   2.552  0.00  0.00    +0.000 A 
ATOM      3  C   UNL     1      -4.110   3.594   1.496  0.00  0.00    +0.000 A 
ATOM      4  C   UNL     1      -4.963   4.183   0.580  0.00  0.00    +0.000 A 
ATOM      5  C   UNL     1      -5.302   5.537   0.714  0.00  0.00    +0.000 A 
ATOM      6  C   UNL     1      -4.777   6.271   1.777  0.00  0.00    +0.000 A 
ENDROOT
BRANCH   1   8
ATOM      7  C   UNL     1      -2.580   5.856   4.695  0.00  0.00    +0.000 C 
ATOM      8  O   UNL     1      -3.460   6.447   3.712  0.00  0.00    +0.000 OA
ENDBRANCH   1   8
BRANCH   4   9
ATOM      9  C   UNL     1      -5.526   3.397  -0.561  0.00  0.00    +0.000 C 
ATOM     10  O   UNL     1      -6.049   3.978  -1.489  0.00  0.00    +0.000 OA
BRANCH   9  11
ATOM     11  C   UNL     1      -5.447   1.922  -0.589  0.00  0.00    +0.000 A 
ATOM     12  C   UNL     1      -4.936   1.279  -1.712  0.00  0.00    +0.000 A 
ATOM     13  C   UNL     1      -4.854  -0.111  -1.733  0.00  0.00    +0.000 A 
ATOM     14  C   UNL     1      -5.309  -0.869  -0.663  0.00  0.00    +0.000 A 
ATOM     15  C   UNL     1      -5.856  -0.222   0.435  0.00  0.00    +0.000 A 
ATOM     16  C   UNL     1      -5.922   1.171   0.475  0.00  0.00    +0.000 A 
ENDBRANCH   9  11
ENDBRANCH   4   9
BRANCH   5  17
ATOM     17  O   UNL     1      -6.139   6.112  -0.203  0.00  0.00    +0.000 OA
ATOM     18  H   UNL     1      -6.385   7.067  -0.118  0.00  0.00    +0.000 HD
ENDBRANCH   5  17
TORSDOF 4
