MODEL 1
REMARK VINA RESULT:      -5.5      0.000      0.000
REMARK  Name = ox2_esm1_f8_ligand
REMARK  5 active torsions:
REMARK  status: ('A' for Active; 'I' for Inactive)
REMARK    1  A    between atoms: C_1  and  O_2
REMARK    2  A    between atoms: O_2  and  C_3
REMARK    3  A    between atoms: C_6  and  C_7
REMARK    4  A    between atoms: C_7  and  C_9
REMARK    5  A    between atoms: C_15  and  O_16
REMARK                            x       y       z     vdW  Elec       q    Type
REMARK                         _______ _______ _______ _____ _____    ______ ____
ROOT
ATOM      1  C   UNL     1      -3.012   7.578   5.117  0.00  0.00    +0.000 A 
ATOM      2  C   UNL     1      -2.058   7.407   4.117  0.00  0.00    +0.000 A 
ATOM      3  C   UNL     1      -0.971   6.577   4.325  0.00  0.00    +0.000 A 
ATOM      4  C   UNL     1      -0.815   5.922   5.533  0.00  0.00    +0.000 A 
ATOM      5  C   UNL     1      -1.773   6.087   6.544  0.00  0.00    +0.000 A 
ATOM      6  C   UNL     1      -2.870   6.918   6.318  0.00  0.00    +0.000 A 
ENDROOT
BRANCH   1   8
ATOM      7  C   UNL     1      -5.081   8.053   3.942  0.00  0.00    +0.000 C 
ATOM      8  O   UNL     1      -4.106   8.379   4.959  0.00  0.00    +0.000 OA
ENDBRANCH   1   8
BRANCH   4   9
ATOM      9  C   UNL     1       0.360   5.029   5.777  0.00  0.00    +0.000 C 
ATOM     10  O   UNL     1       1.044   5.196   6.765  0.00  0.00    +0.000 OA
BRANCH   9  11
ATOM     11  C   UNL     1       0.699   3.936   4.844  0.00  0.00    +0.000 A 
ATOM     12  C   UNL     1       0.088   2.694   4.984  0.00  0.00    +0.000 A 
ATOM     13  C   UNL     1       0.402   1.667   4.097  0.00  0.00    +0.000 A 
ATOM     14  C   UNL     1       1.345   1.852   3.096  0.00  0.00    +0.000 A 
ATOM     15  C   UNL     1       1.980   3.080   2.989  0.00  0.00    +0.000 A 
ATOM     16  C   UNL     1       1.656   4.122   3.858  0.00  0.00    +0.000 A 
ENDBRANCH   9  11
ENDBRANCH   4   9
BRANCH   5  17
ATOM     17  O   UNL     1      -1.614   5.426   7.732  0.00  0.00    +0.000 OA
ATOM     18  H   UNL     1      -2.326   4.823   8.062  0.00  0.00    +0.000 HD
ENDBRANCH   5  17
TORSDOF 4
ENDMDL
MODEL 2
REMARK VINA RESULT:      -5.5      0.057      1.164
REMARK  Name = ox2_esm1_f8_ligand
REMARK  5 active torsions:
REMARK  status: ('A' for Active; 'I' for Inactive)
REMARK    1  A    between atoms: C_1  and  O_2
REMARK    2  A    between atoms: O_2  and  C_3
REMARK    3  A    between atoms: C_6  and  C_7
REMARK    4  A    between atoms: C_7  and  C_9
REMARK    5  A    between atoms: C_15  and  O_16
REMARK                            x       y       z     vdW  Elec       q    Type
REMARK                         _______ _______ _______ _____ _____    ______ ____
ROOT
ATOM      1  C   UNL     1      -2.976   7.588   5.106  0.00  0.00    +0.000 A 
ATOM      2  C   UNL     1      -1.996   7.413   4.132  0.00  0.00    +0.000 A 
ATOM      3  C   UNL     1      -0.926   6.568   4.364  0.00  0.00    +0.000 A 
ATOM      4  C   UNL     1      -0.814   5.900   5.571  0.00  0.00    +0.000 A 
ATOM      5  C   UNL     1      -1.798   6.069   6.555  0.00  0.00    +0.000 A 
ATOM      6  C   UNL     1      -2.877   6.916   6.305  0.00  0.00    +0.000 A 
ENDROOT
BRANCH   1   8
ATOM      7  C   UNL     1      -5.079   8.023   3.977  0.00  0.00    +0.000 C 
ATOM      8  O   UNL     1      -4.055   8.404   4.923  0.00  0.00    +0.000 OA
ENDBRANCH   1   8
BRANCH   4   9
ATOM      9  C   UNL     1       0.342   4.991   5.840  0.00  0.00    +0.000 C 
ATOM     10  O   UNL     1       0.995   5.135   6.853  0.00  0.00    +0.000 OA
BRANCH   9  11
ATOM     11  C   UNL     1       0.700   3.907   4.902  0.00  0.00    +0.000 A 
ATOM     12  C   UNL     1       1.641   4.140   3.904  0.00  0.00    +0.000 A 
ATOM     13  C   UNL     1       1.984   3.115   3.026  0.00  0.00    +0.000 A 
ATOM     14  C   UNL     1       1.374   1.871   3.109  0.00  0.00    +0.000 A 
ATOM     15  C   UNL     1       0.406   1.660   4.079  0.00  0.00    +0.000 A 
ATOM     16  C   UNL     1       0.072   2.674   4.978  0.00  0.00    +0.000 A 
ENDBRANCH   9  11
ENDBRANCH   4   9
BRANCH   5  17
ATOM     17  O   UNL     1      -1.682   5.397   7.741  0.00  0.00    +0.000 OA
ATOM     18  H   UNL     1      -1.457   4.433   7.743  0.00  0.00    +0.000 HD
ENDBRANCH   5  17
TORSDOF 4
ENDMDL
MODEL 3
REMARK VINA RESULT:      -5.3      1.052      1.660
REMARK  Name = ox2_esm1_f8_ligand
REMARK  5 active torsions:
REMARK  status: ('A' for Active; 'I' for Inactive)
REMARK    1  A    between atoms: C_1  and  O_2
REMARK    2  A    between atoms: O_2  and  C_3
REMARK    3  A    between atoms: C_6  and  C_7
REMARK    4  A    between atoms: C_7  and  C_9
REMARK    5  A    between atoms: C_15  and  O_16
REMARK                            x       y       z     vdW  Elec       q    Type
REMARK                         _______ _______ _______ _____ _____    ______ ____
ROOT
ATOM      1  C   UNL     1      -3.885   7.870   4.994  0.00  0.00    +0.000 A 
ATOM      2  C   UNL     1      -3.140   7.515   3.872  0.00  0.00    +0.000 A 
ATOM      3  C   UNL     1      -1.904   6.912   4.020  0.00  0.00    +0.000 A 
ATOM      4  C   UNL     1      -1.392   6.670   5.282  0.00  0.00    +0.000 A 
ATOM      5  C   UNL     1      -2.138   7.022   6.416  0.00  0.00    +0.000 A 
ATOM      6  C   UNL     1      -3.387   7.620   6.254  0.00  0.00    +0.000 A 
ENDROOT
BRANCH   1   8
ATOM      7  C   UNL     1      -5.701   8.672   3.600  0.00  0.00    +0.000 C 
ATOM      8  O   UNL     1      -5.113   8.460   4.903  0.00  0.00    +0.000 OA
ENDBRANCH   1   8
BRANCH   4   9
ATOM      9  C   UNL     1      -0.053   6.028   5.457  0.00  0.00    +0.000 C 
ATOM     10  O   UNL     1       0.894   6.701   5.809  0.00  0.00    +0.000 OA
BRANCH   9  11
ATOM     11  C   UNL     1       0.141   4.582   5.222  0.00  0.00    +0.000 A 
ATOM     12  C   UNL     1       0.853   4.153   4.106  0.00  0.00    +0.000 A 
ATOM     13  C   UNL     1       1.042   2.790   3.892  0.00  0.00    +0.000 A 
ATOM     14  C   UNL     1       0.500   1.849   4.756  0.00  0.00    +0.000 A 
ATOM     15  C   UNL     1      -0.244   2.284   5.843  0.00  0.00    +0.000 A 
ATOM     16  C   UNL     1      -0.421   3.648   6.079  0.00  0.00    +0.000 A 
ENDBRANCH   9  11
ENDBRANCH   4   9
BRANCH   5  17
ATOM     17  O   UNL     1      -1.626   6.769   7.659  0.00  0.00    +0.000 OA
ATOM     18  H   UNL     1      -2.175   6.296   8.334  0.00  0.00    +0.000 HD
ENDBRANCH   5  17
TORSDOF 4
ENDMDL
MODEL 4
REMARK VINA RESULT:      -5.3      1.559      5.604
REMARK  Name = ox2_esm1_f8_ligand
REMARK  5 active torsions:
REMARK  status: ('A' for Active; 'I' for Inactive)
REMARK    1  A    between atoms: C_1  and  O_2
REMARK    2  A    between atoms: O_2  and  C_3
REMARK    3  A    between atoms: C_6  and  C_7
REMARK    4  A    between atoms: C_7  and  C_9
REMARK    5  A    between atoms: C_15  and  O_16
REMARK                            x       y       z     vdW  Elec       q    Type
REMARK                         _______ _______ _______ _____ _____    ______ ____
ROOT
ATOM      1  C   UNL     1       0.613   2.514   5.244  0.00  0.00    +0.000 A 
ATOM      2  C   UNL     1       1.023   3.576   4.441  0.00  0.00    +0.000 A 
ATOM      3  C   UNL     1       0.523   4.847   4.658  0.00  0.00    +0.000 A 
ATOM      4  C   UNL     1      -0.399   5.072   5.666  0.00  0.00    +0.000 A 
ATOM      5  C   UNL     1      -0.814   4.008   6.480  0.00  0.00    +0.000 A 
ATOM      6  C   UNL     1      -0.294   2.734   6.257  0.00  0.00    +0.000 A 
ENDROOT
BRANCH   1   8
ATOM      7  C   UNL     1       1.651   0.861   3.803  0.00  0.00    +0.000 C 
ATOM      8  O   UNL     1       1.082   1.243   5.076  0.00  0.00    +0.000 OA
ENDBRANCH   1   8
BRANCH   4   9
ATOM      9  C   UNL     1      -0.956   6.438   5.906  0.00  0.00    +0.000 C 
ATOM     10  O   UNL     1      -0.425   7.168   6.718  0.00  0.00    +0.000 OA
BRANCH   9  11
ATOM     11  C   UNL     1      -2.136   6.927   5.164  0.00  0.00    +0.000 A 
ATOM     12  C   UNL     1      -3.304   7.239   5.852  0.00  0.00    +0.000 A 
ATOM     13  C   UNL     1      -4.413   7.708   5.152  0.00  0.00    +0.000 A 
ATOM     14  C   UNL     1      -4.382   7.835   3.770  0.00  0.00    +0.000 A 
ATOM     15  C   UNL     1      -3.228   7.482   3.087  0.00  0.00    +0.000 A 
ATOM     16  C   UNL     1      -2.105   7.032   3.782  0.00  0.00    +0.000 A 
ENDBRANCH   9  11
ENDBRANCH   4   9
BRANCH   5  17
ATOM     17  O   UNL     1      -1.718   4.243   7.480  0.00  0.00    +0.000 OA
ATOM     18  H   UNL     1      -1.914   3.538   8.146  0.00  0.00    +0.000 HD
ENDBRANCH   5  17
TORSDOF 4
ENDMDL
MODEL 5
REMARK VINA RESULT:      -5.2      2.242      3.360
REMARK  Name = ox2_esm1_f8_ligand
REMARK  5 active torsions:
REMARK  status: ('A' for Active; 'I' for Inactive)
REMARK    1  A    between atoms: C_1  and  O_2
REMARK    2  A    between atoms: O_2  and  C_3
REMARK    3  A    between atoms: C_6  and  C_7
REMARK    4  A    between atoms: C_7  and  C_9
REMARK    5  A    between atoms: C_15  and  O_16
REMARK                            x       y       z     vdW  Elec       q    Type
REMARK                         _______ _______ _______ _____ _____    ______ ____
ROOT
ATOM      1  C   UNL     1      -5.556   8.732   4.758  0.00  0.00    +0.000 A 
ATOM      2  C   UNL     1      -5.068   7.729   3.924  0.00  0.00    +0.000 A 
ATOM      3  C   UNL     1      -3.741   7.344   4.000  0.00  0.00    +0.000 A 
ATOM      4  C   UNL     1      -2.886   7.962   4.895  0.00  0.00    +0.000 A 
ATOM      5  C   UNL     1      -3.371   8.971   5.740  0.00  0.00    +0.000 A 
ATOM      6  C   UNL     1      -4.713   9.342   5.661  0.00  0.00    +0.000 A 
ENDROOT
BRANCH   1   8
ATOM      7  C   UNL     1      -7.790   8.475   3.848  0.00  0.00    +0.000 C 
ATOM      8  O   UNL     1      -6.857   9.143   4.728  0.00  0.00    +0.000 OA
ENDBRANCH   1   8
BRANCH   4   9
ATOM      9  C   UNL     1      -1.447   7.563   4.982  0.00  0.00    +0.000 C 
ATOM     10  O   UNL     1      -0.585   8.358   4.669  0.00  0.00    +0.000 OA
BRANCH   9  11
ATOM     11  C   UNL     1      -1.050   6.221   5.455  0.00  0.00    +0.000 A 
ATOM     12  C   UNL     1      -1.642   5.688   6.596  0.00  0.00    +0.000 A 
ATOM     13  C   UNL     1      -1.273   4.419   7.035  0.00  0.00    +0.000 A 
ATOM     14  C   UNL     1      -0.295   3.691   6.372  0.00  0.00    +0.000 A 
ATOM     15  C   UNL     1       0.320   4.247   5.260  0.00  0.00    +0.000 A 
ATOM     16  C   UNL     1      -0.059   5.508   4.799  0.00  0.00    +0.000 A 
ENDBRANCH   9  11
ENDBRANCH   4   9
BRANCH   5  17
ATOM     17  O   UNL     1      -2.518   9.568   6.628  0.00  0.00    +0.000 OA
ATOM     18  H   UNL     1      -1.852  10.226   6.308  0.00  0.00    +0.000 HD
ENDBRANCH   5  17
TORSDOF 4
ENDMDL
MODEL 6
REMARK VINA RESULT:      -5.1      1.427      1.503
REMARK  Name = ox2_esm1_f8_ligand
REMARK  5 active torsions:
REMARK  status: ('A' for Active; 'I' for Inactive)
REMARK    1  A    between atoms: C_1  and  O_2
REMARK    2  A    between atoms: O_2  and  C_3
REMARK    3  A    between atoms: C_6  and  C_7
REMARK    4  A    between atoms: C_7  and  C_9
REMARK    5  A    between atoms: C_15  and  O_16
REMARK                            x       y       z     vdW  Elec       q    Type
REMARK                         _______ _______ _______ _____ _____    ______ ____
ROOT
ATOM      1  C   UNL     1      -1.966   8.192   5.616  0.00  0.00    +0.000 A 
ATOM      2  C   UNL     1      -1.907   7.382   4.485  0.00  0.00    +0.000 A 
ATOM      3  C   UNL     1      -0.859   6.496   4.318  0.00  0.00    +0.000 A 
ATOM      4  C   UNL     1       0.147   6.417   5.265  0.00  0.00    +0.000 A 
ATOM      5  C   UNL     1       0.093   7.228   6.407  0.00  0.00    +0.000 A 
ATOM      6  C   UNL     1      -0.975   8.110   6.569  0.00  0.00    +0.000 A 
ENDROOT
BRANCH   1   8
ATOM      7  C   UNL     1      -4.311   8.760   5.358  0.00  0.00    +0.000 C 
ATOM      8  O   UNL     1      -2.983   9.077   5.833  0.00  0.00    +0.000 OA
ENDBRANCH   1   8
BRANCH   4   9
ATOM      9  C   UNL     1       1.292   5.470   5.092  0.00  0.00    +0.000 C 
ATOM     10  O   UNL     1       2.417   5.834   5.365  0.00  0.00    +0.000 OA
BRANCH   9  11
ATOM     11  C   UNL     1       1.080   4.091   4.607  0.00  0.00    +0.000 A 
ATOM     12  C   UNL     1       0.333   3.198   5.369  0.00  0.00    +0.000 A 
ATOM     13  C   UNL     1       0.128   1.901   4.906  0.00  0.00    +0.000 A 
ATOM     14  C   UNL     1       0.688   1.473   3.711  0.00  0.00    +0.000 A 
ATOM     15  C   UNL     1       1.466   2.356   2.978  0.00  0.00    +0.000 A 
ATOM     16  C   UNL     1       1.660   3.665   3.422  0.00  0.00    +0.000 A 
ENDBRANCH   9  11
ENDBRANCH   4   9
BRANCH   5  17
ATOM     17  O   UNL     1       1.087   7.135   7.342  0.00  0.00    +0.000 OA
ATOM     18  H   UNL     1       0.986   7.583   8.219  0.00  0.00    +0.000 HD
ENDBRANCH   5  17
TORSDOF 4
ENDMDL
MODEL 7
REMARK VINA RESULT:      -4.9      1.716      5.945
REMARK  Name = ox2_esm1_f8_ligand
REMARK  5 active torsions:
REMARK  status: ('A' for Active; 'I' for Inactive)
REMARK    1  A    between atoms: C_1  and  O_2
REMARK    2  A    between atoms: O_2  and  C_3
REMARK    3  A    between atoms: C_6  and  C_7
REMARK    4  A    between atoms: C_7  and  C_9
REMARK    5  A    between atoms: C_15  and  O_16
REMARK                            x       y       z     vdW  Elec       q    Type
REMARK                         _______ _______ _______ _____ _____    ______ ____
ROOT
ATOM      1  C   UNL     1       1.962   3.302   4.258  0.00  0.00    +0.000 A 
ATOM      2  C   UNL     1       0.741   3.060   4.884  0.00  0.00    +0.000 A 
ATOM      3  C   UNL     1      -0.023   4.114   5.351  0.00  0.00    +0.000 A 
ATOM      4  C   UNL     1       0.424   5.416   5.213  0.00  0.00    +0.000 A 
ATOM      5  C   UNL     1       1.651   5.668   4.582  0.00  0.00    +0.000 A 
ATOM      6  C   UNL     1       2.407   4.597   4.106  0.00  0.00    +0.000 A 
ENDROOT
BRANCH   1   8
ATOM      7  C   UNL     1       2.238   0.947   3.745  0.00  0.00    +0.000 C 
ATOM      8  O   UNL     1       2.750   2.299   3.773  0.00  0.00    +0.000 OA
ENDBRANCH   1   8
BRANCH   4   9
ATOM      9  C   UNL     1      -0.386   6.565   5.722  0.00  0.00    +0.000 C 
ATOM     10  O   UNL     1       0.029   7.228   6.649  0.00  0.00    +0.000 OA
BRANCH   9  11
ATOM     11  C   UNL     1      -1.683   6.920   5.109  0.00  0.00    +0.000 A 
ATOM     12  C   UNL     1      -1.784   7.034   3.726  0.00  0.00    +0.000 A 
ATOM     13  C   UNL     1      -3.009   7.360   3.149  0.00  0.00    +0.000 A 
ATOM     14  C   UNL     1      -4.125   7.609   3.936  0.00  0.00    +0.000 A 
ATOM     15  C   UNL     1      -4.005   7.534   5.316  0.00  0.00    +0.000 A 
ATOM     16  C   UNL     1      -2.788   7.187   5.902  0.00  0.00    +0.000 A 
ENDBRANCH   9  11
ENDBRANCH   4   9
BRANCH   5  17
ATOM     17  O   UNL     1       2.080   6.960   4.442  0.00  0.00    +0.000 OA
ATOM     18  H   UNL     1       2.268   7.508   5.245  0.00  0.00    +0.000 HD
ENDBRANCH   5  17
TORSDOF 4
ENDMDL
MODEL 8
REMARK VINA RESULT:      -4.9      1.970      5.992
REMARK  Name = ox2_esm1_f8_ligand
REMARK  5 active torsions:
REMARK  status: ('A' for Active; 'I' for Inactive)
REMARK    1  A    between atoms: C_1  and  O_2
REMARK    2  A    between atoms: O_2  and  C_3
REMARK    3  A    between atoms: C_6  and  C_7
REMARK    4  A    between atoms: C_7  and  C_9
REMARK    5  A    between atoms: C_15  and  O_16
REMARK                            x       y       z     vdW  Elec       q    Type
REMARK                         _______ _______ _______ _____ _____    ______ ____
ROOT
ATOM      1  C   UNL     1       3.010   3.934   2.782  0.00  0.00    +0.000 A 
ATOM      2  C   UNL     1       1.871   3.180   3.054  0.00  0.00    +0.000 A 
ATOM      3  C   UNL     1       0.983   3.589   4.033  0.00  0.00    +0.000 A 
ATOM      4  C   UNL     1       1.227   4.741   4.759  0.00  0.00    +0.000 A 
ATOM      5  C   UNL     1       2.370   5.506   4.489  0.00  0.00    +0.000 A 
ATOM      6  C   UNL     1       3.252   5.089   3.493  0.00  0.00    +0.000 A 
ENDROOT
BRANCH   1   8
ATOM      7  C   UNL     1       4.698   4.605   1.174  0.00  0.00    +0.000 C 
ATOM      8  O   UNL     1       3.913   3.579   1.822  0.00  0.00    +0.000 OA
ENDBRANCH   1   8
BRANCH   4   9
ATOM      9  C   UNL     1       0.282   5.189   5.828  0.00  0.00    +0.000 C 
ATOM     10  O   UNL     1       0.495   4.887   6.983  0.00  0.00    +0.000 OA
BRANCH   9  11
ATOM     11  C   UNL     1      -0.906   6.008   5.507  0.00  0.00    +0.000 A 
ATOM     12  C   UNL     1      -1.047   6.550   4.233  0.00  0.00    +0.000 A 
ATOM     13  C   UNL     1      -2.171   7.314   3.930  0.00  0.00    +0.000 A 
ATOM     14  C   UNL     1      -3.137   7.575   4.892  0.00  0.00    +0.000 A 
ATOM     15  C   UNL     1      -2.968   7.066   6.171  0.00  0.00    +0.000 A 
ATOM     16  C   UNL     1      -1.856   6.281   6.478  0.00  0.00    +0.000 A 
ENDBRANCH   9  11
ENDBRANCH   4   9
BRANCH   5  17
ATOM     17  O   UNL     1       2.597   6.648   5.207  0.00  0.00    +0.000 OA
ATOM     18  H   UNL     1       3.000   7.438   4.767  0.00  0.00    +0.000 HD
ENDBRANCH   5  17
TORSDOF 4
ENDMDL
MODEL 9
REMARK VINA RESULT:      -4.9      2.115      6.450
REMARK  Name = ox2_esm1_f8_ligand
REMARK  5 active torsions:
REMARK  status: ('A' for Active; 'I' for Inactive)
REMARK    1  A    between atoms: C_1  and  O_2
REMARK    2  A    between atoms: O_2  and  C_3
REMARK    3  A    between atoms: C_6  and  C_7
REMARK    4  A    between atoms: C_7  and  C_9
REMARK    5  A    between atoms: C_15  and  O_16
REMARK                            x       y       z     vdW  Elec       q    Type
REMARK                         _______ _______ _______ _____ _____    ______ ____
ROOT
ATOM      1  C   UNL     1      -0.435   4.987   5.785  0.00  0.00    +0.000 A 
ATOM      2  C   UNL     1      -1.423   5.088   6.761  0.00  0.00    +0.000 A 
ATOM      3  C   UNL     1      -2.241   6.202   6.811  0.00  0.00    +0.000 A 
ATOM      4  C   UNL     1      -2.074   7.231   5.902  0.00  0.00    +0.000 A 
ATOM      5  C   UNL     1      -1.083   7.136   4.915  0.00  0.00    +0.000 A 
ATOM      6  C   UNL     1      -0.272   6.002   4.869  0.00  0.00    +0.000 A 
ENDROOT
BRANCH   1   8
ATOM      7  C   UNL     1       0.102   2.720   6.462  0.00  0.00    +0.000 C 
ATOM      8  O   UNL     1       0.393   3.905   5.688  0.00  0.00    +0.000 OA
ENDBRANCH   1   8
BRANCH   4   9
ATOM      9  C   UNL     1      -2.944   8.447   5.950  0.00  0.00    +0.000 C 
ATOM     10  O   UNL     1      -2.473   9.507   6.306  0.00  0.00    +0.000 OA
BRANCH   9  11
ATOM     11  C   UNL     1      -4.368   8.387   5.560  0.00  0.00    +0.000 A 
ATOM     12  C   UNL     1      -5.351   8.745   6.477  0.00  0.00    +0.000 A 
ATOM     13  C   UNL     1      -6.692   8.696   6.104  0.00  0.00    +0.000 A 
ATOM     14  C   UNL     1      -7.066   8.261   4.841  0.00  0.00    +0.000 A 
ATOM     15  C   UNL     1      -6.082   7.866   3.947  0.00  0.00    +0.000 A 
ATOM     16  C   UNL     1      -4.735   7.932   4.303  0.00  0.00    +0.000 A 
ENDBRANCH   9  11
ENDBRANCH   4   9
BRANCH   5  17
ATOM     17  O   UNL     1      -0.933   8.155   4.015  0.00  0.00    +0.000 OA
ATOM     18  H   UNL     1      -0.183   8.794   4.112  0.00  0.00    +0.000 HD
ENDBRANCH   5  17
TORSDOF 4
ENDMDL
