REMARK  Name = ox3_orig_f8_ligand
REMARK  5 active torsions:
REMARK  status: ('A' for Active; 'I' for Inactive)
REMARK    1  A    between atoms: C_1  and  O_2
REMARK    2  A    between atoms: O_2  and  C_3
REMARK    3  A    between atoms: C_6  and  C_7
REMARK    4  A    between atoms: C_7  and  C_9
REMARK    5  A    between atoms: C_15  and  O_16
REMARK                            x       y       z     vdW  Elec       q    Type
REMARK                         _______ _______ _______ _____ _____    ______ ____
ROOT
ATOM      1  C   UNL     1      -0.946   7.249  -4.637  0.00  0.00    +0.000 A 
ATOM      2  C   UNL     1      -0.401   6.400  -5.603  0.00  0.00    +0.000 A 
ATOM      3  C   UNL     1       0.569   5.477  -5.246  0.00  0.00    +0.000 A 
ATOM      4  C   UNL     1       1.004   5.385  -3.927  0.00  0.00    +0.000 A 
ATOM      5  C   UNL     1       0.460   6.245  -2.973  0.00  0.00    +0.000 A 
ATOM      6  C   UNL     1      -0.510   7.170  -3.339  0.00  0.00    +0.000 A 
ENDROOT
BRANCH   1   8
ATOM      7  C   UNL     1      -2.318   8.382  -6.290  0.00  0.00    +0.000 C 
ATOM      8  O   UNL     1      -1.911   8.180  -4.937  0.00  0.00    +0.000 OA
ENDBRANCH   1   8
BRANCH   4   9
ATOM      9  C   UNL     1       2.062   4.396  -3.528  0.00  0.00    +0.000 C 
ATOM     10  O   UNL     1       2.478   4.431  -2.394  0.00  0.00    +0.000 OA
BRANCH   9  11
ATOM     11  C   UNL     1       2.634   3.412  -4.479  0.00  0.00    +0.000 A 
ATOM     12  C   UNL     1       1.822   2.613  -5.272  0.00  0.00    +0.000 A 
ATOM     13  C   UNL     1       2.385   1.679  -6.123  0.00  0.00    +0.000 A 
ATOM     14  C   UNL     1       3.756   1.561  -6.238  0.00  0.00    +0.000 A 
ATOM     15  C   UNL     1       4.574   2.342  -5.440  0.00  0.00    +0.000 A 
ATOM     16  C   UNL     1       4.019   3.256  -4.543  0.00  0.00    +0.000 A 
ENDBRANCH   9  11
ENDBRANCH   4   9
BRANCH   5  17
ATOM     17  O   UNL     1       0.898   6.179  -1.684  0.00  0.00    +0.000 OA
ATOM     18  H   UNL     1       0.517   6.786  -1.000  0.00  0.00    +0.000 HD
ENDBRANCH   5  17
TORSDOF 4
