REMARK  Name = /Users/cafierom/python_mac/peptidebuilder/runs/oxybenzone/dock/ox3_orig_f8_o3apo/ox3_orig_f8_o3apo_protein.pdb
REMARK                            x       y       z     vdW  Elec       q    Type
REMARK                         _______ _______ _______ _____ _____    ______ ____
ATOM      1  N   ASP A   1      -0.950  -8.119  -2.105  0.00  0.00    +0.000 NA
ATOM      2  CA  ASP A   1       0.060  -7.340  -2.827  0.00  0.00    +0.000 C 
ATOM      3  C   ASP A   1      -0.549  -6.684  -4.060  0.00  0.00    +0.000 C 
ATOM      4  O   ASP A   1      -1.704  -6.925  -4.392  0.00  0.00    +0.000 OA
ATOM      5  CB  ASP A   1       1.224  -8.247  -3.238  0.00  0.00    +0.000 C 
ATOM      6  CG  ASP A   1       1.987  -8.771  -2.048  0.00  0.00    +0.000 C 
ATOM      7  OD1 ASP A   1       1.863  -8.184  -0.956  0.00  0.00    +0.000 OA
ATOM      8  OD2 ASP A   1       2.707  -9.770  -2.205  0.00  0.00    +0.000 OA
ATOM      9  N   GLY A   2       0.223  -5.891  -4.708  0.00  0.00    +0.000 N 
ATOM     10  CA  GLY A   2      -0.269  -5.177  -5.877  0.00  0.00    +0.000 C 
ATOM     11  C   GLY A   2      -0.777  -3.803  -5.472  0.00  0.00    +0.000 C 
ATOM     12  O   GLY A   2      -0.046  -3.005  -4.898  0.00  0.00    +0.000 OA
ATOM     13  N   GLY A   3      -2.026  -3.548  -5.758  0.00  0.00    +0.000 N 
ATOM     14  CA  GLY A   3      -2.605  -2.254  -5.445  0.00  0.00    +0.000 C 
ATOM     15  C   GLY A   3      -2.122  -1.188  -6.410  0.00  0.00    +0.000 C 
ATOM     16  O   GLY A   3      -1.658  -1.482  -7.503  0.00  0.00    +0.000 OA
ATOM     17  N   GLU A   4      -2.220   0.059  -5.981  0.00  0.00    +0.000 N 
ATOM     18  CA  GLU A   4      -1.846   1.181  -6.824  0.00  0.00    +0.000 C 
ATOM     19  C   GLU A   4      -0.965   2.155  -6.060  0.00  0.00    +0.000 C 
ATOM     20  O   GLU A   4      -1.098   2.303  -4.847  0.00  0.00    +0.000 OA
ATOM     21  CB  GLU A   4      -3.097   1.910  -7.316  0.00  0.00    +0.000 C 
ATOM     22  CG  GLU A   4      -4.004   1.050  -8.176  0.00  0.00    +0.000 C 
ATOM     23  CD  GLU A   4      -5.262   1.782  -8.608  0.00  0.00    +0.000 C 
ATOM     24  OE1 GLU A   4      -5.437   2.940  -8.195  0.00  0.00    +0.000 OA
ATOM     25  OE2 GLU A   4      -6.067   1.193  -9.348  0.00  0.00    +0.000 OA
ATOM     26  N   GLY A   5      -0.098   2.811  -6.786  0.00  0.00    +0.000 N 
ATOM     27  CA  GLY A   5       0.730   3.836  -6.195  0.00  0.00    +0.000 C 
ATOM     28  C   GLY A   5       0.036   5.181  -6.276  0.00  0.00    +0.000 C 
ATOM     29  O   GLY A   5      -0.766   5.419  -7.173  0.00  0.00    +0.000 OA
ATOM     30  N   GLY A   6       0.349   6.042  -5.329  0.00  0.00    +0.000 N 
ATOM     31  CA  GLY A   6      -0.280   7.344  -5.308  0.00  0.00    +0.000 C 
ATOM     32  C   GLY A   6       0.271   8.204  -4.190  0.00  0.00    +0.000 C 
ATOM     33  O   GLY A   6       1.358   7.953  -3.676  0.00  0.00    +0.000 OA
ATOM     34  N   ILE A   7      -0.500   9.198  -3.816  0.00  0.00    +0.000 N 
ATOM     35  CA  ILE A   7      -0.104  10.118  -2.761  0.00  0.00    +0.000 C 
ATOM     36  C   ILE A   7      -1.107  10.036  -1.623  0.00  0.00    +0.000 C 
ATOM     37  O   ILE A   7      -2.305  10.201  -1.831  0.00  0.00    +0.000 OA
ATOM     38  CB  ILE A   7      -0.036  11.561  -3.277  0.00  0.00    +0.000 C 
ATOM     39  CG1 ILE A   7       0.990  11.672  -4.400  0.00  0.00    +0.000 C 
ATOM     40  CG2 ILE A   7       0.278  12.523  -2.147  0.00  0.00    +0.000 C 
ATOM     41  CD1 ILE A   7       2.385  11.309  -3.958  0.00  0.00    +0.000 C 
ATOM     42  N   GLY A   8      -0.606   9.782  -0.427  0.00  0.00    +0.000 N 
ATOM     43  CA  GLY A   8      -1.454   9.689   0.738  0.00  0.00    +0.000 C 
ATOM     44  C   GLY A   8      -1.114   8.441   1.521  0.00  0.00    +0.000 C 
ATOM     45  O   GLY A   8      -0.034   7.877   1.387  0.00  0.00    +0.000 OA
ATOM     46  N   GLY A   9      -2.060   7.997   2.316  0.00  0.00    +0.000 N 
ATOM     47  CA  GLY A   9      -1.861   6.806   3.110  0.00  0.00    +0.000 C 
ATOM     48  C   GLY A   9      -2.790   5.697   2.667  0.00  0.00    +0.000 C 
ATOM     49  O   GLY A   9      -3.726   5.914   1.909  0.00  0.00    +0.000 OA
ATOM     50  N   GLY A  10      -2.517   4.504   3.143  0.00  0.00    +0.000 N 
ATOM     51  CA  GLY A  10      -3.361   3.373   2.844  0.00  0.00    +0.000 C 
ATOM     52  C   GLY A  10      -4.384   3.167   3.940  0.00  0.00    +0.000 C 
ATOM     53  O   GLY A  10      -4.157   3.526   5.094  0.00  0.00    +0.000 OA
ATOM     54  N   SER A  11      -5.489   2.565   3.577  0.00  0.00    +0.000 N 
ATOM     55  CA  SER A  11      -6.545   2.297   4.538  0.00  0.00    +0.000 C 
ATOM     56  C   SER A  11      -6.426   0.886   5.094  0.00  0.00    +0.000 C 
ATOM     57  O   SER A  11      -6.779   0.632   6.244  0.00  0.00    +0.000 OA
ATOM     58  CB  SER A  11      -7.910   2.486   3.889  0.00  0.00    +0.000 C 
ATOM     59  OG  SER A  11      -8.087   3.831   3.497  0.00  0.00    +0.000 OA
ATOM     60  N   GLY A  12      -5.926  -0.027   4.278  0.00  0.00    +0.000 N 
ATOM     61  CA  GLY A  12      -5.744  -1.401   4.702  0.00  0.00    +0.000 C 
ATOM     62  C   GLY A  12      -4.279  -1.771   4.689  0.00  0.00    +0.000 C 
ATOM     63  O   GLY A  12      -3.433  -1.000   5.123  0.00  0.00    +0.000 OA
ATOM     64  N   GLY A  13      -3.990  -2.944   4.181  0.00  0.00    +0.000 N 
ATOM     65  CA  GLY A  13      -2.611  -3.384   4.110  0.00  0.00    +0.000 C 
ATOM     66  C   GLY A  13      -2.380  -4.307   2.928  0.00  0.00    +0.000 C 
ATOM     67  O   GLY A  13      -1.689  -5.319   3.050  0.00  0.00    +0.000 OA
ATOM     68  N   TRP A  14      -2.970  -3.953   1.817  0.00  0.00    +0.000 N 
ATOM     69  CA  TRP A  14      -2.915  -4.821   0.646  0.00  0.00    +0.000 C 
ATOM     70  C   TRP A  14      -1.895  -4.354  -0.375  0.00  0.00    +0.000 C 
ATOM     71  O   TRP A  14      -1.020  -5.124  -0.754  0.00  0.00    +0.000 OA
ATOM     72  CB  TRP A  14      -4.285  -4.882  -0.033  0.00  0.00    +0.000 C 
ATOM     73  CG  TRP A  14      -5.322  -5.569   0.786  0.00  0.00    +0.000 C 
ATOM     74  CD1 TRP A  14      -5.556  -6.910   0.835  0.00  0.00    +0.000 C 
ATOM     75  CD2 TRP A  14      -6.275  -4.961   1.662  0.00  0.00    +0.000 C 
ATOM     76  NE1 TRP A  14      -6.591  -7.167   1.682  0.00  0.00    +0.000 NA
ATOM     77  CE2 TRP A  14      -7.055  -5.984   2.206  0.00  0.00    +0.000 C 
ATOM     78  CE3 TRP A  14      -6.544  -3.641   2.026  0.00  0.00    +0.000 C 
ATOM     79  CZ2 TRP A  14      -8.091  -5.741   3.096  0.00  0.00    +0.000 C 
ATOM     80  CZ3 TRP A  14      -7.570  -3.404   2.914  0.00  0.00    +0.000 C 
ATOM     81  CH2 TRP A  14      -8.332  -4.440   3.440  0.00  0.00    +0.000 C 
ATOM     82  N   GLY A  15      -2.025  -3.145  -0.858  0.00  0.00    +0.000 N 
ATOM     83  CA  GLY A  15      -1.216  -2.655  -1.956  0.00  0.00    +0.000 C 
ATOM     84  C   GLY A  15       0.262  -2.573  -1.640  0.00  0.00    +0.000 C 
ATOM     85  O   GLY A  15       0.685  -2.609  -0.488  0.00  0.00    +0.000 OA
ATOM     86  N   ASP A  16       1.045  -2.463  -2.690  0.00  0.00    +0.000 N 
ATOM     87  CA  ASP A  16       2.497  -2.375  -2.575  0.00  0.00    +0.000 C 
ATOM     88  C   ASP A  16       3.019  -0.995  -2.956  0.00  0.00    +0.000 C 
ATOM     89  O   ASP A  16       4.223  -0.762  -2.922  0.00  0.00    +0.000 OA
ATOM     90  CB  ASP A  16       3.161  -3.420  -3.473  0.00  0.00    +0.000 C 
ATOM     91  CG  ASP A  16       2.962  -4.832  -2.968  0.00  0.00    +0.000 C 
ATOM     92  OD1 ASP A  16       2.622  -5.002  -1.786  0.00  0.00    +0.000 OA
ATOM     93  OD2 ASP A  16       3.152  -5.770  -3.759  0.00  0.00    +0.000 OA
ATOM     94  N   GLY A  17       2.123  -0.113  -3.332  0.00  0.00    +0.000 N 
ATOM     95  CA  GLY A  17       2.521   1.212  -3.755  0.00  0.00    +0.000 C 
ATOM     96  C   GLY A  17       2.717   2.155  -2.588  0.00  0.00    +0.000 C 
ATOM     97  O   GLY A  17       2.693   1.756  -1.428  0.00  0.00    +0.000 OA
ATOM     98  N   PHE A  18       2.921   3.416  -2.902  0.00  0.00    +0.000 NA
ATOM     99  CA  PHE A  18       3.103   4.449  -1.894  0.00  0.00    +0.000 C 
ATOM    100  C   PHE A  18       1.786   5.176  -1.668  0.00  0.00    +0.000 C 
ATOM    101  O   PHE A  18       1.443   6.096  -2.403  0.00  0.00    +0.000 OA
ATOM    102  CB  PHE A  18       4.169   5.449  -2.342  0.00  0.00    +0.000 C 
ATOM    103  CG  PHE A  18       5.559   4.879  -2.415  0.00  0.00    +0.000 A 
ATOM    104  CD1 PHE A  18       6.600   5.674  -2.851  0.00  0.00    +0.000 A 
ATOM    105  CD2 PHE A  18       5.830   3.566  -2.048  0.00  0.00    +0.000 A 
ATOM    106  CE1 PHE A  18       7.886   5.165  -2.925  0.00  0.00    +0.000 A 
ATOM    107  CE2 PHE A  18       7.106   3.064  -2.122  0.00  0.00    +0.000 A 
ATOM    108  CZ  PHE A  18       8.144   3.866  -2.562  0.00  0.00    +0.000 A 
ATOM    109  N   GLY A  19       1.061   4.754  -0.667  0.00  0.00    +0.000 N 
ATOM    110  CA  GLY A  19      -0.191   5.403  -0.355  0.00  0.00    +0.000 C 
ATOM    111  C   GLY A  19      -1.265   5.170  -1.388  0.00  0.00    +0.000 C 
ATOM    112  O   GLY A  19      -2.187   5.968  -1.521  0.00  0.00    +0.000 OA
ATOM    113  N   GLY A  20      -1.149   4.079  -2.112  0.00  0.00    +0.000 N 
ATOM    114  CA  GLY A  20      -2.125   3.769  -3.133  0.00  0.00    +0.000 C 
ATOM    115  C   GLY A  20      -3.380   3.159  -2.550  0.00  0.00    +0.000 C 
ATOM    116  O   GLY A  20      -3.705   3.349  -1.382  0.00  0.00    +0.000 OA
ATOM    117  N   GLY A  21      -4.071   2.419  -3.367  0.00  0.00    +0.000 N 
ATOM    118  CA  GLY A  21      -5.314   1.811  -2.942  0.00  0.00    +0.000 C 
ATOM    119  C   GLY A  21      -5.111   0.747  -1.886  0.00  0.00    +0.000 C 
ATOM    120  O   GLY A  21      -4.650  -0.353  -2.179  0.00  0.00    +0.000 OA
ATOM    121  N   LEU A  22      -5.465   1.073  -0.669  0.00  0.00    +0.000 N 
ATOM    122  CA  LEU A  22      -5.462   0.114   0.428  0.00  0.00    +0.000 C 
ATOM    123  C   LEU A  22      -4.121  -0.596   0.570  0.00  0.00    +0.000 C 
ATOM    124  O   LEU A  22      -4.029  -1.815   0.444  0.00  0.00    +0.000 OA
ATOM    125  CB  LEU A  22      -6.579  -0.909   0.225  0.00  0.00    +0.000 C 
ATOM    126  CG  LEU A  22      -7.966  -0.319  -0.026  0.00  0.00    +0.000 C 
ATOM    127  CD1 LEU A  22      -8.402   0.532   1.131  0.00  0.00    +0.000 C 
ATOM    128  CD2 LEU A  22      -8.961  -1.431  -0.277  0.00  0.00    +0.000 C 
ATOM    129  N   GLY A  23      -3.089   0.182   0.845  0.00  0.00    +0.000 N 
ATOM    130  CA  GLY A  23      -1.780  -0.431   0.972  0.00  0.00    +0.000 C 
ATOM    131  C   GLY A  23      -0.800   0.469   1.681  0.00  0.00    +0.000 C 
ATOM    132  O   GLY A  23      -0.633   0.395   2.896  0.00  0.00    +0.000 OA
ATOM    133  N   GLY A  24      -0.151   1.294   0.922  0.00  0.00    +0.000 N 
ATOM    134  CA  GLY A  24       0.847   2.182   1.474  0.00  0.00    +0.000 C 
ATOM    135  C   GLY A  24       2.226   1.777   1.010  0.00  0.00    +0.000 C 
ATOM    136  O   GLY A  24       2.491   1.708  -0.190  0.00  0.00    +0.000 OA
ATOM    137  N   TYR A  25       3.098   1.493   1.950  0.00  0.00    +0.000 NA
ATOM    138  CA  TYR A  25       4.487   1.175   1.640  0.00  0.00    +0.000 C 
ATOM    139  C   TYR A  25       4.724  -0.330   1.585  0.00  0.00    +0.000 C 
ATOM    140  O   TYR A  25       4.880  -0.970   2.613  0.00  0.00    +0.000 OA
ATOM    141  CB  TYR A  25       5.407   1.821   2.671  0.00  0.00    +0.000 C 
ATOM    142  CG  TYR A  25       6.253   2.926   2.105  0.00  0.00    +0.000 A 
ATOM    143  CD1 TYR A  25       7.535   2.682   1.654  0.00  0.00    +0.000 A 
ATOM    144  CD2 TYR A  25       5.762   4.228   2.026  0.00  0.00    +0.000 A 
ATOM    145  CE1 TYR A  25       8.314   3.700   1.140  0.00  0.00    +0.000 A 
ATOM    146  CE2 TYR A  25       6.530   5.247   1.514  0.00  0.00    +0.000 A 
ATOM    147  CZ  TYR A  25       7.806   4.983   1.072  0.00  0.00    +0.000 A 
ATOM    148  OH  TYR A  25       8.580   5.997   0.562  0.00  0.00    +0.000 OA
ATOM    149  N   GLY A  26       4.739  -0.868   0.386  0.00  0.00    +0.000 N 
ATOM    150  CA  GLY A  26       5.185  -2.229   0.145  0.00  0.00    +0.000 C 
ATOM    151  C   GLY A  26       4.474  -3.328   0.899  0.00  0.00    +0.000 C 
ATOM    152  O   GLY A  26       4.960  -4.457   0.956  0.00  0.00    +0.000 OA
ATOM    153  N   SER A  27       3.356  -3.027   1.491  0.00  0.00    +0.000 N 
ATOM    154  CA  SER A  27       2.605  -4.025   2.244  0.00  0.00    +0.000 C 
ATOM    155  C   SER A  27       1.138  -3.651   2.331  0.00  0.00    +0.000 C 
ATOM    156  O   SER A  27       0.465  -4.024   3.297  0.00  0.00    +0.000 OA
ATOM    157  CB  SER A  27       3.179  -4.190   3.646  0.00  0.00    +0.000 C 
ATOM    158  OG  SER A  27       4.465  -4.759   3.596  0.00  0.00    +0.000 OA
ATOM    159  H   ASP A   1      -1.721  -7.509  -1.835  0.00  0.00    +0.000 HD
ATOM    160  H   ASP A   1      -0.531  -8.527  -1.270  0.00  0.00    +0.000 HD
ATOM    161  H   ASP A   1       1.307  -7.433  -0.888  0.00  0.00    +0.000 HD
ATOM    162  H   GLY A   2       1.154  -5.764  -4.413  0.00  0.00    +0.000 HD
ATOM    163  H   GLY A   3      -2.579  -4.239  -6.189  0.00  0.00    +0.000 HD
ATOM    164  H   GLU A   4      -2.554   0.230  -5.071  0.00  0.00    +0.000 HD
ATOM    165  H   GLU A   4      -4.799   3.340  -7.638  0.00  0.00    +0.000 HD
ATOM    166  H   GLY A   5      -0.009   2.604  -7.744  0.00  0.00    +0.000 HD
ATOM    167  H   GLY A   6       1.008   5.800  -4.639  0.00  0.00    +0.000 HD
ATOM    168  H   ILE A   7      -1.369   9.324  -4.261  0.00  0.00    +0.000 HD
ATOM    169  H   GLY A   8       0.365   9.654  -0.328  0.00  0.00    +0.000 HD
ATOM    170  H   GLY A   9      -2.915   8.481   2.372  0.00  0.00    +0.000 HD
ATOM    171  H   GLY A  10      -1.724   4.380   3.713  0.00  0.00    +0.000 HD
ATOM    172  H   SER A  11      -5.606   2.290   2.639  0.00  0.00    +0.000 HD
ATOM    173  H   SER A  11      -7.402   4.073   2.854  0.00  0.00    +0.000 HD
ATOM    174  H   GLY A  12      -5.672   0.232   3.363  0.00  0.00    +0.000 HD
ATOM    175  H   GLY A  13      -4.710  -3.527   3.847  0.00  0.00    +0.000 HD
ATOM    176  H   TRP A  14      -3.454  -3.097   1.770  0.00  0.00    +0.000 HD
ATOM    177  H   GLY A  15      -2.698  -2.546  -0.461  0.00  0.00    +0.000 HD
ATOM    178  H   ASP A  16       0.637  -2.439  -3.586  0.00  0.00    +0.000 HD
ATOM    179  H   ASP A  16       2.490  -4.263  -1.226  0.00  0.00    +0.000 HD
ATOM    180  H   GLY A  17       1.169  -0.356  -3.326  0.00  0.00    +0.000 HD
ATOM    181  H   GLY A  19       1.368   3.992  -0.124  0.00  0.00    +0.000 HD
ATOM    182  H   GLY A  20      -0.392   3.469  -1.958  0.00  0.00    +0.000 HD
ATOM    183  H   GLY A  21      -3.745   2.271  -4.284  0.00  0.00    +0.000 HD
ATOM    184  H   LEU A  22      -5.743   2.000  -0.488  0.00  0.00    +0.000 HD
ATOM    185  H   GLY A  23      -3.205   1.153   0.961  0.00  0.00    +0.000 HD
ATOM    186  H   GLY A  24      -0.340   1.317  -0.044  0.00  0.00    +0.000 HD
ATOM    187  H   TYR A  25       9.449   5.817   0.261  0.00  0.00    +0.000 HD
ATOM    188  H   GLY A  26       4.436  -0.327  -0.379  0.00  0.00    +0.000 HD
ATOM    189  H   SER A  27       3.010  -2.107   1.430  0.00  0.00    +0.000 HD
ATOM    190  H   SER A  27       4.415  -5.635   3.183  0.00  0.00    +0.000 HD
TER 
