MODEL 1
REMARK VINA RESULT:      -5.0      0.000      0.000
REMARK  Name = ox3_orig_f8_ligand
REMARK  5 active torsions:
REMARK  status: ('A' for Active; 'I' for Inactive)
REMARK    1  A    between atoms: C_1  and  O_2
REMARK    2  A    between atoms: O_2  and  C_3
REMARK    3  A    between atoms: C_6  and  C_7
REMARK    4  A    between atoms: C_7  and  C_9
REMARK    5  A    between atoms: C_15  and  O_16
REMARK                            x       y       z     vdW  Elec       q    Type
REMARK                         _______ _______ _______ _____ _____    ______ ____
ROOT
ATOM      1  C   UNL     1       5.577   8.916  -1.532  0.00  0.00    +0.000 A 
ATOM      2  C   UNL     1       6.213   8.905  -0.289  0.00  0.00    +0.000 A 
ATOM      3  C   UNL     1       5.469   8.743   0.869  0.00  0.00    +0.000 A 
ATOM      4  C   UNL     1       4.087   8.585   0.803  0.00  0.00    +0.000 A 
ATOM      5  C   UNL     1       3.462   8.608  -0.444  0.00  0.00    +0.000 A 
ATOM      6  C   UNL     1       4.214   8.775  -1.600  0.00  0.00    +0.000 A 
ENDROOT
BRANCH   1   8
ATOM      7  C   UNL     1       5.566   9.132  -3.951  0.00  0.00    +0.000 C 
ATOM      8  O   UNL     1       6.268   9.072  -2.710  0.00  0.00    +0.000 OA
ENDBRANCH   1   8
BRANCH   4   9
ATOM      9  C   UNL     1       3.267   8.418   2.050  0.00  0.00    +0.000 C 
ATOM     10  O   UNL     1       2.605   9.356   2.428  0.00  0.00    +0.000 OA
BRANCH   9  11
ATOM     11  C   UNL     1       3.270   7.167   2.845  0.00  0.00    +0.000 A 
ATOM     12  C   UNL     1       2.504   6.070   2.475  0.00  0.00    +0.000 A 
ATOM     13  C   UNL     1       2.500   4.929   3.257  0.00  0.00    +0.000 A 
ATOM     14  C   UNL     1       3.292   4.841   4.385  0.00  0.00    +0.000 A 
ATOM     15  C   UNL     1       4.047   5.935   4.772  0.00  0.00    +0.000 A 
ATOM     16  C   UNL     1       4.025   7.109   4.017  0.00  0.00    +0.000 A 
ENDBRANCH   9  11
ENDBRANCH   4   9
BRANCH   5  17
ATOM     17  O   UNL     1       2.107   8.480  -0.516  0.00  0.00    +0.000 OA
ATOM     18  H   UNL     1       1.652   7.749  -0.026  0.00  0.00    +0.000 HD
ENDBRANCH   5  17
TORSDOF 4
ENDMDL
MODEL 2
REMARK VINA RESULT:      -4.8      1.445      2.092
REMARK  Name = ox3_orig_f8_ligand
REMARK  5 active torsions:
REMARK  status: ('A' for Active; 'I' for Inactive)
REMARK    1  A    between atoms: C_1  and  O_2
REMARK    2  A    between atoms: O_2  and  C_3
REMARK    3  A    between atoms: C_6  and  C_7
REMARK    4  A    between atoms: C_7  and  C_9
REMARK    5  A    between atoms: C_15  and  O_16
REMARK                            x       y       z     vdW  Elec       q    Type
REMARK                         _______ _______ _______ _____ _____    ______ ____
ROOT
ATOM      1  C   UNL     1       5.300   9.302  -1.836  0.00  0.00    +0.000 A 
ATOM      2  C   UNL     1       6.106   8.794  -0.815  0.00  0.00    +0.000 A 
ATOM      3  C   UNL     1       5.528   8.145   0.265  0.00  0.00    +0.000 A 
ATOM      4  C   UNL     1       4.147   7.991   0.339  0.00  0.00    +0.000 A 
ATOM      5  C   UNL     1       3.351   8.512  -0.682  0.00  0.00    +0.000 A 
ATOM      6  C   UNL     1       3.937   9.164  -1.760  0.00  0.00    +0.000 A 
ENDROOT
BRANCH   1   8
ATOM      7  C   UNL     1       5.809   9.324  -4.211  0.00  0.00    +0.000 C 
ATOM      8  O   UNL     1       5.821   9.952  -2.929  0.00  0.00    +0.000 OA
ENDBRANCH   1   8
BRANCH   4   9
ATOM      9  C   UNL     1       3.507   7.299   1.509  0.00  0.00    +0.000 C 
ATOM     10  O   UNL     1       2.895   6.277   1.303  0.00  0.00    +0.000 OA
BRANCH   9  11
ATOM     11  C   UNL     1       3.568   7.841   2.888  0.00  0.00    +0.000 A 
ATOM     12  C   UNL     1       4.159   7.128   3.922  0.00  0.00    +0.000 A 
ATOM     13  C   UNL     1       4.168   7.645   5.205  0.00  0.00    +0.000 A 
ATOM     14  C   UNL     1       3.640   8.893   5.470  0.00  0.00    +0.000 A 
ATOM     15  C   UNL     1       3.034   9.604   4.449  0.00  0.00    +0.000 A 
ATOM     16  C   UNL     1       2.976   9.075   3.159  0.00  0.00    +0.000 A 
ENDBRANCH   9  11
ENDBRANCH   4   9
BRANCH   5  17
ATOM     17  O   UNL     1       1.996   8.388  -0.605  0.00  0.00    +0.000 OA
ATOM     18  H   UNL     1       1.556   8.301   0.278  0.00  0.00    +0.000 HD
ENDBRANCH   5  17
TORSDOF 4
ENDMDL
MODEL 3
REMARK VINA RESULT:      -4.8      5.892      8.134
REMARK  Name = ox3_orig_f8_ligand
REMARK  5 active torsions:
REMARK  status: ('A' for Active; 'I' for Inactive)
REMARK    1  A    between atoms: C_1  and  O_2
REMARK    2  A    between atoms: O_2  and  C_3
REMARK    3  A    between atoms: C_6  and  C_7
REMARK    4  A    between atoms: C_7  and  C_9
REMARK    5  A    between atoms: C_15  and  O_16
REMARK                            x       y       z     vdW  Elec       q    Type
REMARK                         _______ _______ _______ _____ _____    ______ ____
ROOT
ATOM      1  C   UNL     1       5.849   9.162  -4.740  0.00  0.00    +0.000 A 
ATOM      2  C   UNL     1       6.957   8.622  -5.399  0.00  0.00    +0.000 A 
ATOM      3  C   UNL     1       6.834   7.433  -6.099  0.00  0.00    +0.000 A 
ATOM      4  C   UNL     1       5.611   6.770  -6.155  0.00  0.00    +0.000 A 
ATOM      5  C   UNL     1       4.515   7.313  -5.485  0.00  0.00    +0.000 A 
ATOM      6  C   UNL     1       4.646   8.505  -4.783  0.00  0.00    +0.000 A 
ENDROOT
BRANCH   1   8
ATOM      7  C   UNL     1       6.069  10.317  -2.615  0.00  0.00    +0.000 C 
ATOM      8  O   UNL     1       5.916  10.339  -4.034  0.00  0.00    +0.000 OA
ENDBRANCH   1   8
BRANCH   4   9
ATOM      9  C   UNL     1       5.467   5.475  -6.902  0.00  0.00    +0.000 C 
ATOM     10  O   UNL     1       4.847   5.479  -7.939  0.00  0.00    +0.000 OA
BRANCH   9  11
ATOM     11  C   UNL     1       6.022   4.196  -6.396  0.00  0.00    +0.000 A 
ATOM     12  C   UNL     1       7.376   3.905  -6.489  0.00  0.00    +0.000 A 
ATOM     13  C   UNL     1       7.858   2.689  -6.041  0.00  0.00    +0.000 A 
ATOM     14  C   UNL     1       7.016   1.768  -5.449  0.00  0.00    +0.000 A 
ATOM     15  C   UNL     1       5.662   2.041  -5.366  0.00  0.00    +0.000 A 
ATOM     16  C   UNL     1       5.154   3.245  -5.857  0.00  0.00    +0.000 A 
ENDBRANCH   9  11
ENDBRANCH   4   9
BRANCH   5  17
ATOM     17  O   UNL     1       3.320   6.658  -5.514  0.00  0.00    +0.000 OA
ATOM     18  H   UNL     1       3.132   5.943  -4.856  0.00  0.00    +0.000 HD
ENDBRANCH   5  17
TORSDOF 4
ENDMDL
MODEL 4
REMARK VINA RESULT:      -4.7      2.446      6.345
REMARK  Name = ox3_orig_f8_ligand
REMARK  5 active torsions:
REMARK  status: ('A' for Active; 'I' for Inactive)
REMARK    1  A    between atoms: C_1  and  O_2
REMARK    2  A    between atoms: O_2  and  C_3
REMARK    3  A    between atoms: C_6  and  C_7
REMARK    4  A    between atoms: C_7  and  C_9
REMARK    5  A    between atoms: C_15  and  O_16
REMARK                            x       y       z     vdW  Elec       q    Type
REMARK                         _______ _______ _______ _____ _____    ______ ____
ROOT
ATOM      1  C   UNL     1       3.368   3.846   5.091  0.00  0.00    +0.000 A 
ATOM      2  C   UNL     1       4.297   4.824   5.455  0.00  0.00    +0.000 A 
ATOM      3  C   UNL     1       4.276   6.064   4.835  0.00  0.00    +0.000 A 
ATOM      4  C   UNL     1       3.332   6.345   3.852  0.00  0.00    +0.000 A 
ATOM      5  C   UNL     1       2.416   5.358   3.490  0.00  0.00    +0.000 A 
ATOM      6  C   UNL     1       2.445   4.116   4.113  0.00  0.00    +0.000 A 
ENDROOT
BRANCH   1   8
ATOM      7  C   UNL     1       2.235   1.730   5.460  0.00  0.00    +0.000 C 
ATOM      8  O   UNL     1       3.344   2.602   5.674  0.00  0.00    +0.000 OA
ENDBRANCH   1   8
BRANCH   4   9
ATOM      9  C   UNL     1       3.304   7.681   3.166  0.00  0.00    +0.000 C 
ATOM     10  O   UNL     1       2.436   8.463   3.472  0.00  0.00    +0.000 OA
BRANCH   9  11
ATOM     11  C   UNL     1       4.275   8.055   2.108  0.00  0.00    +0.000 A 
ATOM     12  C   UNL     1       5.476   8.680   2.415  0.00  0.00    +0.000 A 
ATOM     13  C   UNL     1       6.344   9.049   1.403  0.00  0.00    +0.000 A 
ATOM     14  C   UNL     1       6.060   8.758   0.084  0.00  0.00    +0.000 A 
ATOM     15  C   UNL     1       4.857   8.150  -0.233  0.00  0.00    +0.000 A 
ATOM     16  C   UNL     1       3.951   7.814   0.773  0.00  0.00    +0.000 A 
ENDBRANCH   9  11
ENDBRANCH   4   9
BRANCH   5  17
ATOM     17  O   UNL     1       1.504   5.616   2.511  0.00  0.00    +0.000 OA
ATOM     18  H   UNL     1       0.537   5.508   2.694  0.00  0.00    +0.000 HD
ENDBRANCH   5  17
TORSDOF 4
ENDMDL
MODEL 5
REMARK VINA RESULT:      -4.5      1.956      6.263
REMARK  Name = ox3_orig_f8_ligand
REMARK  5 active torsions:
REMARK  status: ('A' for Active; 'I' for Inactive)
REMARK    1  A    between atoms: C_1  and  O_2
REMARK    2  A    between atoms: O_2  and  C_3
REMARK    3  A    between atoms: C_6  and  C_7
REMARK    4  A    between atoms: C_7  and  C_9
REMARK    5  A    between atoms: C_15  and  O_16
REMARK                            x       y       z     vdW  Elec       q    Type
REMARK                         _______ _______ _______ _____ _____    ______ ____
ROOT
ATOM      1  C   UNL     1       3.105   4.609   4.374  0.00  0.00    +0.000 A 
ATOM      2  C   UNL     1       2.391   4.829   3.194  0.00  0.00    +0.000 A 
ATOM      3  C   UNL     1       2.487   6.049   2.545  0.00  0.00    +0.000 A 
ATOM      4  C   UNL     1       3.295   7.060   3.057  0.00  0.00    +0.000 A 
ATOM      5  C   UNL     1       3.995   6.832   4.242  0.00  0.00    +0.000 A 
ATOM      6  C   UNL     1       3.892   5.607   4.889  0.00  0.00    +0.000 A 
ENDROOT
BRANCH   1   8
ATOM      7  C   UNL     1       1.823   2.687   5.124  0.00  0.00    +0.000 C 
ATOM      8  O   UNL     1       3.047   3.417   5.057  0.00  0.00    +0.000 OA
ENDBRANCH   1   8
BRANCH   4   9
ATOM      9  C   UNL     1       3.401   8.391   2.369  0.00  0.00    +0.000 C 
ATOM     10  O   UNL     1       2.977   9.366   2.943  0.00  0.00    +0.000 OA
BRANCH   9  11
ATOM     11  C   UNL     1       3.968   8.542   1.007  0.00  0.00    +0.000 A 
ATOM     12  C   UNL     1       5.331   8.425   0.772  0.00  0.00    +0.000 A 
ATOM     13  C   UNL     1       5.834   8.607  -0.504  0.00  0.00    +0.000 A 
ATOM     14  C   UNL     1       4.991   8.856  -1.569  0.00  0.00    +0.000 A 
ATOM     15  C   UNL     1       3.632   8.990  -1.342  0.00  0.00    +0.000 A 
ATOM     16  C   UNL     1       3.116   8.855  -0.053  0.00  0.00    +0.000 A 
ENDBRANCH   9  11
ENDBRANCH   4   9
BRANCH   5  17
ATOM     17  O   UNL     1       4.769   7.825   4.765  0.00  0.00    +0.000 OA
ATOM     18  H   UNL     1       4.448   8.762   4.753  0.00  0.00    +0.000 HD
ENDBRANCH   5  17
TORSDOF 4
ENDMDL
MODEL 6
REMARK VINA RESULT:      -4.3      7.005      9.236
REMARK  Name = ox3_orig_f8_ligand
REMARK  5 active torsions:
REMARK  status: ('A' for Active; 'I' for Inactive)
REMARK    1  A    between atoms: C_1  and  O_2
REMARK    2  A    between atoms: O_2  and  C_3
REMARK    3  A    between atoms: C_6  and  C_7
REMARK    4  A    between atoms: C_7  and  C_9
REMARK    5  A    between atoms: C_15  and  O_16
REMARK                            x       y       z     vdW  Elec       q    Type
REMARK                         _______ _______ _______ _____ _____    ______ ____
ROOT
ATOM      1  C   UNL     1       7.131   1.832  -5.508  0.00  0.00    +0.000 A 
ATOM      2  C   UNL     1       8.027   2.727  -6.097  0.00  0.00    +0.000 A 
ATOM      3  C   UNL     1       7.581   3.962  -6.541  0.00  0.00    +0.000 A 
ATOM      4  C   UNL     1       6.243   4.321  -6.402  0.00  0.00    +0.000 A 
ATOM      5  C   UNL     1       5.356   3.414  -5.823  0.00  0.00    +0.000 A 
ATOM      6  C   UNL     1       5.809   2.177  -5.382  0.00  0.00    +0.000 A 
ENDROOT
BRANCH   1   8
ATOM      7  C   UNL     1       6.932  -0.588  -5.586  0.00  0.00    +0.000 C 
ATOM      8  O   UNL     1       7.521   0.597  -5.049  0.00  0.00    +0.000 OA
ENDBRANCH   1   8
BRANCH   4   9
ATOM      9  C   UNL     1       5.745   5.651  -6.889  0.00  0.00    +0.000 C 
ATOM     10  O   UNL     1       5.276   5.714  -8.001  0.00  0.00    +0.000 OA
BRANCH   9  11
ATOM     11  C   UNL     1       5.840   6.886  -6.073  0.00  0.00    +0.000 A 
ATOM     12  C   UNL     1       7.049   7.544  -5.890  0.00  0.00    +0.000 A 
ATOM     13  C   UNL     1       7.112   8.673  -5.094  0.00  0.00    +0.000 A 
ATOM     14  C   UNL     1       5.973   9.194  -4.512  0.00  0.00    +0.000 A 
ATOM     15  C   UNL     1       4.766   8.537  -4.675  0.00  0.00    +0.000 A 
ATOM     16  C   UNL     1       4.695   7.370  -5.438  0.00  0.00    +0.000 A 
ENDBRANCH   9  11
ENDBRANCH   4   9
BRANCH   5  17
ATOM     17  O   UNL     1       4.039   3.747  -5.705  0.00  0.00    +0.000 OA
ATOM     18  H   UNL     1       3.780   4.589  -5.251  0.00  0.00    +0.000 HD
ENDBRANCH   5  17
TORSDOF 4
ENDMDL
MODEL 7
REMARK VINA RESULT:      -4.3      5.764      8.085
REMARK  Name = ox3_orig_f8_ligand
REMARK  5 active torsions:
REMARK  status: ('A' for Active; 'I' for Inactive)
REMARK    1  A    between atoms: C_1  and  O_2
REMARK    2  A    between atoms: O_2  and  C_3
REMARK    3  A    between atoms: C_6  and  C_7
REMARK    4  A    between atoms: C_7  and  C_9
REMARK    5  A    between atoms: C_15  and  O_16
REMARK                            x       y       z     vdW  Elec       q    Type
REMARK                         _______ _______ _______ _____ _____    ______ ____
ROOT
ATOM      1  C   UNL     1       5.590   3.499  -6.324  0.00  0.00    +0.000 A 
ATOM      2  C   UNL     1       6.757   4.227  -6.569  0.00  0.00    +0.000 A 
ATOM      3  C   UNL     1       6.741   5.610  -6.485  0.00  0.00    +0.000 A 
ATOM      4  C   UNL     1       5.568   6.283  -6.154  0.00  0.00    +0.000 A 
ATOM      5  C   UNL     1       4.407   5.546  -5.922  0.00  0.00    +0.000 A 
ATOM      6  C   UNL     1       4.430   4.159  -6.011  0.00  0.00    +0.000 A 
ENDROOT
BRANCH   1   8
ATOM      7  C   UNL     1       5.891   1.342  -5.250  0.00  0.00    +0.000 C 
ATOM      8  O   UNL     1       5.552   2.127  -6.392  0.00  0.00    +0.000 OA
ENDBRANCH   1   8
BRANCH   4   9
ATOM      9  C   UNL     1       5.534   7.782  -6.069  0.00  0.00    +0.000 C 
ATOM     10  O   UNL     1       5.154   8.400  -7.036  0.00  0.00    +0.000 OA
BRANCH   9  11
ATOM     11  C   UNL     1       5.980   8.524  -4.865  0.00  0.00    +0.000 A 
ATOM     12  C   UNL     1       7.307   8.889  -4.688  0.00  0.00    +0.000 A 
ATOM     13  C   UNL     1       7.699   9.549  -3.537  0.00  0.00    +0.000 A 
ATOM     14  C   UNL     1       6.775   9.901  -2.573  0.00  0.00    +0.000 A 
ATOM     15  C   UNL     1       5.452   9.527  -2.732  0.00  0.00    +0.000 A 
ATOM     16  C   UNL     1       5.051   8.820  -3.867  0.00  0.00    +0.000 A 
ENDBRANCH   9  11
ENDBRANCH   4   9
BRANCH   5  17
ATOM     17  O   UNL     1       3.248   6.198  -5.621  0.00  0.00    +0.000 OA
ATOM     18  H   UNL     1       2.792   6.025  -4.759  0.00  0.00    +0.000 HD
ENDBRANCH   5  17
TORSDOF 4
ENDMDL
MODEL 8
REMARK VINA RESULT:      -4.3      1.778      5.919
REMARK  Name = ox3_orig_f8_ligand
REMARK  5 active torsions:
REMARK  status: ('A' for Active; 'I' for Inactive)
REMARK    1  A    between atoms: C_1  and  O_2
REMARK    2  A    between atoms: O_2  and  C_3
REMARK    3  A    between atoms: C_6  and  C_7
REMARK    4  A    between atoms: C_7  and  C_9
REMARK    5  A    between atoms: C_15  and  O_16
REMARK                            x       y       z     vdW  Elec       q    Type
REMARK                         _______ _______ _______ _____ _____    ______ ____
ROOT
ATOM      1  C   UNL     1       3.627   8.129   4.312  0.00  0.00    +0.000 A 
ATOM      2  C   UNL     1       3.978   9.356   3.743  0.00  0.00    +0.000 A 
ATOM      3  C   UNL     1       3.933   9.519   2.367  0.00  0.00    +0.000 A 
ATOM      4  C   UNL     1       3.536   8.469   1.545  0.00  0.00    +0.000 A 
ATOM      5  C   UNL     1       3.199   7.246   2.123  0.00  0.00    +0.000 A 
ATOM      6  C   UNL     1       3.249   7.088   3.503  0.00  0.00    +0.000 A 
ENDROOT
BRANCH   1   8
ATOM      7  C   UNL     1       2.480   7.464   6.346  0.00  0.00    +0.000 C 
ATOM      8  O   UNL     1       3.653   7.914   5.669  0.00  0.00    +0.000 OA
ENDBRANCH   1   8
BRANCH   4   9
ATOM      9  C   UNL     1       3.493   8.630   0.051  0.00  0.00    +0.000 C 
ATOM     10  O   UNL     1       2.419   8.564  -0.499  0.00  0.00    +0.000 OA
BRANCH   9  11
ATOM     11  C   UNL     1       4.715   8.827  -0.766  0.00  0.00    +0.000 A 
ATOM     12  C   UNL     1       4.645   9.267  -2.080  0.00  0.00    +0.000 A 
ATOM     13  C   UNL     1       5.800   9.407  -2.828  0.00  0.00    +0.000 A 
ATOM     14  C   UNL     1       7.039   9.164  -2.270  0.00  0.00    +0.000 A 
ATOM     15  C   UNL     1       7.118   8.709  -0.965  0.00  0.00    +0.000 A 
ATOM     16  C   UNL     1       5.958   8.519  -0.213  0.00  0.00    +0.000 A 
ENDBRANCH   9  11
ENDBRANCH   4   9
BRANCH   5  17
ATOM     17  O   UNL     1       2.833   6.204   1.323  0.00  0.00    +0.000 OA
ATOM     18  H   UNL     1       2.320   5.446   1.702  0.00  0.00    +0.000 HD
ENDBRANCH   5  17
TORSDOF 4
ENDMDL
MODEL 9
REMARK VINA RESULT:      -4.2     10.829     12.677
REMARK  Name = ox3_orig_f8_ligand
REMARK  5 active torsions:
REMARK  status: ('A' for Active; 'I' for Inactive)
REMARK    1  A    between atoms: C_1  and  O_2
REMARK    2  A    between atoms: O_2  and  C_3
REMARK    3  A    between atoms: C_6  and  C_7
REMARK    4  A    between atoms: C_7  and  C_9
REMARK    5  A    between atoms: C_15  and  O_16
REMARK                            x       y       z     vdW  Elec       q    Type
REMARK                         _______ _______ _______ _____ _____    ______ ____
ROOT
ATOM      1  C   UNL     1       3.578  -3.498  -8.158  0.00  0.00    +0.000 A 
ATOM      2  C   UNL     1       4.380  -2.618  -8.888  0.00  0.00    +0.000 A 
ATOM      3  C   UNL     1       4.255  -1.250  -8.702  0.00  0.00    +0.000 A 
ATOM      4  C   UNL     1       3.337  -0.744  -7.787  0.00  0.00    +0.000 A 
ATOM      5  C   UNL     1       2.533  -1.632  -7.072  0.00  0.00    +0.000 A 
ATOM      6  C   UNL     1       2.662  -3.001  -7.266  0.00  0.00    +0.000 A 
ENDROOT
BRANCH   1   8
ATOM      7  C   UNL     1       3.138  -5.725  -7.295  0.00  0.00    +0.000 C 
ATOM      8  O   UNL     1       3.662  -4.862  -8.303  0.00  0.00    +0.000 OA
ENDBRANCH   1   8
BRANCH   4   9
ATOM      9  C   UNL     1       3.184   0.737  -7.583  0.00  0.00    +0.000 C 
ATOM     10  O   UNL     1       2.181   1.270  -7.995  0.00  0.00    +0.000 OA
BRANCH   9  11
ATOM     11  C   UNL     1       4.228   1.564  -6.932  0.00  0.00    +0.000 A 
ATOM     12  C   UNL     1       5.198   0.998  -6.116  0.00  0.00    +0.000 A 
ATOM     13  C   UNL     1       6.137   1.801  -5.494  0.00  0.00    +0.000 A 
ATOM     14  C   UNL     1       6.159   3.165  -5.712  0.00  0.00    +0.000 A 
ATOM     15  C   UNL     1       5.186   3.741  -6.510  0.00  0.00    +0.000 A 
ATOM     16  C   UNL     1       4.205   2.948  -7.108  0.00  0.00    +0.000 A 
ENDBRANCH   9  11
ENDBRANCH   4   9
BRANCH   5  17
ATOM     17  O   UNL     1       1.614  -1.144  -6.192  0.00  0.00    +0.000 OA
ATOM     18  H   UNL     1       1.031  -0.386  -6.454  0.00  0.00    +0.000 HD
ENDBRANCH   5  17
TORSDOF 4
ENDMDL
