REMARK  Name = bg33_1_ligand
REMARK  12 active torsions:
REMARK  status: ('A' for Active; 'I' for Inactive)
REMARK    1  A    between atoms: C_1  and  C_2
REMARK    2  A    between atoms: C_2  and  C_3
REMARK    3  A    between atoms: C_3  and  C_4
REMARK    4  A    between atoms: C_4  and  C_5
REMARK    5  A    between atoms: C_5  and  C_6
REMARK    6  A    between atoms: C_5  and  O_8
REMARK    7  A    between atoms: C_6  and  C_7
REMARK    8  A    between atoms: O_8  and  C_9
REMARK    9  A    between atoms: C_9  and  C_11
REMARK   10  A    between atoms: C_12  and  C_13
REMARK   11  A    between atoms: C_16  and  O_17
REMARK   12  A    between atoms: O_17  and  C_18
REMARK                            x       y       z     vdW  Elec       q    Type
REMARK                         _______ _______ _______ _____ _____    ______ ____
ROOT
ATOM      1  C   UNL     1       4.013  -8.920  13.578  0.00  0.00    +0.000 C 
ATOM      2  O   UNL     1       4.490  -9.622  12.727  0.00  0.00    +0.000 OA
ENDROOT
BRANCH   1   3
ATOM      3  C   UNL     1       2.855  -8.159  13.326  0.00  0.00    +0.000 C 
ATOM      4  C   UNL     1       2.723  -7.650  12.184  0.00  0.00    +0.000 C 
BRANCH   4   5
ATOM      5  C   UNL     1       1.729  -6.761  11.837  0.00  0.00    +0.000 A 
ATOM      6  C   UNL     1       0.432  -7.072  11.972  0.00  0.00    +0.000 A 
ATOM      7  C   UNL     1      -0.559  -6.210  11.634  0.00  0.00    +0.000 A 
ATOM      8  C   UNL     1      -0.184  -4.980  11.179  0.00  0.00    +0.000 A 
ATOM      9  C   UNL     1       1.075  -4.620  11.039  0.00  0.00    +0.000 A 
ATOM     10  C   UNL     1       2.036  -5.522  11.344  0.00  0.00    +0.000 A 
BRANCH   8  11
ATOM     11  O   UNL     1      -1.089  -4.099  10.824  0.00  0.00    +0.000 OA
ATOM     12  C   UNL     1      -1.002  -2.898  11.511  0.00  0.00    +0.000 C 
ENDBRANCH   8  11
ENDBRANCH   4   5
ENDBRANCH   1   3
BRANCH   1  13
ATOM     13  O   UNL     1       4.559  -8.859  14.745  0.00  0.00    +0.000 OA
BRANCH  13  14
ATOM     14  C   UNL     1       5.638  -9.509  14.805  0.00  0.00    +0.000 C 
BRANCH  14  15
ATOM     15  C   UNL     1       6.699  -8.921  13.938  0.00  0.00    +0.000 C 
ATOM     16  C   UNL     1       7.013  -7.582  14.259  0.00  0.00    +0.000 C 
ENDBRANCH  14  15
BRANCH  14  17
ATOM     17  C   UNL     1       6.001  -9.963  16.082  0.00  0.00    +0.000 C 
BRANCH  17  18
ATOM     18  C   UNL     1       5.590  -9.103  17.133  0.00  0.00    +0.000 C 
BRANCH  18  20
ATOM     19  C   UNL     1       4.332 -10.719  18.436  0.00  0.00    +0.000 C 
ATOM     20  C   UNL     1       5.639  -9.972  18.292  0.00  0.00    +0.000 C 
ENDBRANCH  18  20
ENDBRANCH  17  18
ENDBRANCH  14  17
ENDBRANCH  13  14
ENDBRANCH   1  13
TORSDOF 9
