MODEL 1
REMARK VINA RESULT:      -3.2      0.000      0.000
REMARK  Name = bg33_1_ligand
REMARK  12 active torsions:
REMARK  status: ('A' for Active; 'I' for Inactive)
REMARK    1  A    between atoms: C_1  and  C_2
REMARK    2  A    between atoms: C_2  and  C_3
REMARK    3  A    between atoms: C_3  and  C_4
REMARK    4  A    between atoms: C_4  and  C_5
REMARK    5  A    between atoms: C_5  and  C_6
REMARK    6  A    between atoms: C_5  and  O_8
REMARK    7  A    between atoms: C_6  and  C_7
REMARK    8  A    between atoms: O_8  and  C_9
REMARK    9  A    between atoms: C_9  and  C_11
REMARK   10  A    between atoms: C_12  and  C_13
REMARK   11  A    between atoms: C_16  and  O_17
REMARK   12  A    between atoms: O_17  and  C_18
REMARK                            x       y       z     vdW  Elec       q    Type
REMARK                         _______ _______ _______ _____ _____    ______ ____
ROOT
ATOM      1  C   UNL     1       4.580  -3.750   8.959  0.00  0.00    +0.000 C 
ATOM      2  O   UNL     1       5.413  -3.029   9.438  0.00  0.00    +0.000 OA
ENDROOT
BRANCH   1   3
ATOM      3  C   UNL     1       4.186  -4.936   9.609  0.00  0.00    +0.000 C 
ATOM      4  C   UNL     1       3.466  -4.832  10.635  0.00  0.00    +0.000 C 
BRANCH   4   5
ATOM      5  C   UNL     1       3.130  -5.882  11.461  0.00  0.00    +0.000 A 
ATOM      6  C   UNL     1       1.880  -6.364  11.508  0.00  0.00    +0.000 A 
ATOM      7  C   UNL     1       1.531  -7.396  12.316  0.00  0.00    +0.000 A 
ATOM      8  C   UNL     1       2.521  -7.961  13.065  0.00  0.00    +0.000 A 
ATOM      9  C   UNL     1       3.767  -7.533  13.047  0.00  0.00    +0.000 A 
ATOM     10  C   UNL     1       4.068  -6.473  12.263  0.00  0.00    +0.000 A 
BRANCH   8  11
ATOM     11  O   UNL     1       2.254  -8.956  13.877  0.00  0.00    +0.000 OA
ATOM     12  C   UNL     1       2.867  -8.849  15.116  0.00  0.00    +0.000 C 
ENDBRANCH   8  11
ENDBRANCH   4   5
ENDBRANCH   1   3
BRANCH   1  13
ATOM     13  O   UNL     1       4.030  -3.442   7.834  0.00  0.00    +0.000 OA
BRANCH  13  14
ATOM     14  C   UNL     1       3.698  -2.227   7.779  0.00  0.00    +0.000 C 
BRANCH  14  15
ATOM     15  C   UNL     1       4.231  -1.552   6.561  0.00  0.00    +0.000 C 
ATOM     16  C   UNL     1       5.253  -0.617   6.835  0.00  0.00    +0.000 C 
ENDBRANCH  14  15
BRANCH  14  17
ATOM     17  C   UNL     1       2.382  -1.940   8.174  0.00  0.00    +0.000 C 
BRANCH  17  18
ATOM     18  C   UNL     1       2.273  -0.803   9.016  0.00  0.00    +0.000 C 
BRANCH  18  20
ATOM     19  C   UNL     1       0.830  -2.294  10.276  0.00  0.00    +0.000 C 
ATOM     20  C   UNL     1       2.045  -1.394  10.319  0.00  0.00    +0.000 C 
ENDBRANCH  18  20
ENDBRANCH  17  18
ENDBRANCH  14  17
ENDBRANCH  13  14
ENDBRANCH   1  13
TORSDOF 9
ENDMDL
MODEL 2
REMARK VINA RESULT:      -3.1      6.288      7.398
REMARK  Name = bg33_1_ligand
REMARK  12 active torsions:
REMARK  status: ('A' for Active; 'I' for Inactive)
REMARK    1  A    between atoms: C_1  and  C_2
REMARK    2  A    between atoms: C_2  and  C_3
REMARK    3  A    between atoms: C_3  and  C_4
REMARK    4  A    between atoms: C_4  and  C_5
REMARK    5  A    between atoms: C_5  and  C_6
REMARK    6  A    between atoms: C_5  and  O_8
REMARK    7  A    between atoms: C_6  and  C_7
REMARK    8  A    between atoms: O_8  and  C_9
REMARK    9  A    between atoms: C_9  and  C_11
REMARK   10  A    between atoms: C_12  and  C_13
REMARK   11  A    between atoms: C_16  and  O_17
REMARK   12  A    between atoms: O_17  and  C_18
REMARK                            x       y       z     vdW  Elec       q    Type
REMARK                         _______ _______ _______ _____ _____    ______ ____
ROOT
ATOM      1  C   UNL     1      -2.720  -3.365   7.631  0.00  0.00    +0.000 C 
ATOM      2  O   UNL     1      -3.539  -2.583   8.032  0.00  0.00    +0.000 OA
ENDROOT
BRANCH   1   3
ATOM      3  C   UNL     1      -2.824  -4.739   7.922  0.00  0.00    +0.000 C 
ATOM      4  C   UNL     1      -2.966  -5.535   6.960  0.00  0.00    +0.000 C 
BRANCH   4   5
ATOM      5  C   UNL     1      -3.233  -6.880   7.094  0.00  0.00    +0.000 A 
ATOM      6  C   UNL     1      -4.083  -7.512   6.272  0.00  0.00    +0.000 A 
ATOM      7  C   UNL     1      -4.359  -8.834   6.391  0.00  0.00    +0.000 A 
ATOM      8  C   UNL     1      -3.702  -9.520   7.370  0.00  0.00    +0.000 A 
ATOM      9  C   UNL     1      -2.849  -8.951   8.196  0.00  0.00    +0.000 A 
ATOM     10  C   UNL     1      -2.632  -7.621   8.076  0.00  0.00    +0.000 A 
BRANCH   8  11
ATOM     11  O   UNL     1      -3.926 -10.800   7.549  0.00  0.00    +0.000 OA
ATOM     12  C   UNL     1      -2.788 -11.533   7.846  0.00  0.00    +0.000 C 
ENDBRANCH   8  11
ENDBRANCH   4   5
ENDBRANCH   1   3
BRANCH   1  13
ATOM     13  O   UNL     1      -1.729  -2.951   6.916  0.00  0.00    +0.000 OA
BRANCH  13  14
ATOM     14  C   UNL     1      -1.369  -1.782   7.225  0.00  0.00    +0.000 C 
BRANCH  14  15
ATOM     15  C   UNL     1      -0.303  -1.778   8.267  0.00  0.00    +0.000 C 
ATOM     16  C   UNL     1       0.943  -1.304   7.798  0.00  0.00    +0.000 C 
ENDBRANCH  14  15
BRANCH  14  17
ATOM     17  C   UNL     1      -1.255  -0.882   6.155  0.00  0.00    +0.000 C 
BRANCH  17  18
ATOM     18  C   UNL     1      -2.351   0.013   6.041  0.00  0.00    +0.000 C 
BRANCH  18  20
ATOM     19  C   UNL     1      -3.394   1.309   4.274  0.00  0.00    +0.000 C 
ATOM     20  C   UNL     1      -2.133   0.617   4.742  0.00  0.00    +0.000 C 
ENDBRANCH  18  20
ENDBRANCH  17  18
ENDBRANCH  14  17
ENDBRANCH  13  14
ENDBRANCH   1  13
TORSDOF 9
ENDMDL
MODEL 3
REMARK VINA RESULT:      -3.1      4.555      6.635
REMARK  Name = bg33_1_ligand
REMARK  12 active torsions:
REMARK  status: ('A' for Active; 'I' for Inactive)
REMARK    1  A    between atoms: C_1  and  C_2
REMARK    2  A    between atoms: C_2  and  C_3
REMARK    3  A    between atoms: C_3  and  C_4
REMARK    4  A    between atoms: C_4  and  C_5
REMARK    5  A    between atoms: C_5  and  C_6
REMARK    6  A    between atoms: C_5  and  O_8
REMARK    7  A    between atoms: C_6  and  C_7
REMARK    8  A    between atoms: O_8  and  C_9
REMARK    9  A    between atoms: C_9  and  C_11
REMARK   10  A    between atoms: C_12  and  C_13
REMARK   11  A    between atoms: C_16  and  O_17
REMARK   12  A    between atoms: O_17  and  C_18
REMARK                            x       y       z     vdW  Elec       q    Type
REMARK                         _______ _______ _______ _____ _____    ______ ____
ROOT
ATOM      1  C   UNL     1       0.247  -0.741   8.350  0.00  0.00    +0.000 C 
ATOM      2  O   UNL     1      -0.334  -0.257   9.285  0.00  0.00    +0.000 OA
ENDROOT
BRANCH   1   3
ATOM      3  C   UNL     1       1.519  -1.325   8.511  0.00  0.00    +0.000 C 
ATOM      4  C   UNL     1       2.319  -1.267   7.542  0.00  0.00    +0.000 C 
BRANCH   4   5
ATOM      5  C   UNL     1       3.531  -1.920   7.493  0.00  0.00    +0.000 A 
ATOM      6  C   UNL     1       3.780  -2.994   8.255  0.00  0.00    +0.000 A 
ATOM      7  C   UNL     1       4.968  -3.648   8.220  0.00  0.00    +0.000 A 
ATOM      8  C   UNL     1       5.904  -3.190   7.340  0.00  0.00    +0.000 A 
ATOM      9  C   UNL     1       5.705  -2.147   6.560  0.00  0.00    +0.000 A 
ATOM     10  C   UNL     1       4.525  -1.493   6.655  0.00  0.00    +0.000 A 
BRANCH   8  11
ATOM     11  O   UNL     1       7.079  -3.767   7.260  0.00  0.00    +0.000 OA
ATOM     12  C   UNL     1       7.098  -5.068   7.738  0.00  0.00    +0.000 C 
ENDBRANCH   8  11
ENDBRANCH   4   5
ENDBRANCH   1   3
BRANCH   1  13
ATOM     13  O   UNL     1      -0.294  -0.734   7.180  0.00  0.00    +0.000 OA
BRANCH  13  14
ATOM     14  C   UNL     1      -1.476  -1.174   7.195  0.00  0.00    +0.000 C 
BRANCH  14  15
ATOM     15  C   UNL     1      -2.425  -0.264   6.493  0.00  0.00    +0.000 C 
ATOM     16  C   UNL     1      -1.919   0.255   5.280  0.00  0.00    +0.000 C 
ENDBRANCH  14  15
BRANCH  14  17
ATOM     17  C   UNL     1      -1.609  -2.556   6.992  0.00  0.00    +0.000 C 
BRANCH  17  18
ATOM     18  C   UNL     1      -2.394  -3.206   7.979  0.00  0.00    +0.000 C 
BRANCH  18  20
ATOM     19  C   UNL     1      -4.538  -3.578   6.903  0.00  0.00    +0.000 C 
ATOM     20  C   UNL     1      -3.169  -4.149   7.198  0.00  0.00    +0.000 C 
ENDBRANCH  18  20
ENDBRANCH  17  18
ENDBRANCH  14  17
ENDBRANCH  13  14
ENDBRANCH   1  13
TORSDOF 9
ENDMDL
MODEL 4
REMARK VINA RESULT:      -3.1      6.356      9.872
REMARK  Name = bg33_1_ligand
REMARK  12 active torsions:
REMARK  status: ('A' for Active; 'I' for Inactive)
REMARK    1  A    between atoms: C_1  and  C_2
REMARK    2  A    between atoms: C_2  and  C_3
REMARK    3  A    between atoms: C_3  and  C_4
REMARK    4  A    between atoms: C_4  and  C_5
REMARK    5  A    between atoms: C_5  and  C_6
REMARK    6  A    between atoms: C_5  and  O_8
REMARK    7  A    between atoms: C_6  and  C_7
REMARK    8  A    between atoms: O_8  and  C_9
REMARK    9  A    between atoms: C_9  and  C_11
REMARK   10  A    between atoms: C_12  and  C_13
REMARK   11  A    between atoms: C_16  and  O_17
REMARK   12  A    between atoms: O_17  and  C_18
REMARK                            x       y       z     vdW  Elec       q    Type
REMARK                         _______ _______ _______ _____ _____    ______ ____
ROOT
ATOM      1  C   UNL     1      -3.298  -7.724   7.028  0.00  0.00    +0.000 C 
ATOM      2  O   UNL     1      -4.058  -8.134   6.192  0.00  0.00    +0.000 OA
ENDROOT
BRANCH   1   3
ATOM      3  C   UNL     1      -2.906  -6.371   7.050  0.00  0.00    +0.000 C 
ATOM      4  C   UNL     1      -3.791  -5.506   7.271  0.00  0.00    +0.000 C 
BRANCH   4   5
ATOM      5  C   UNL     1      -3.593  -4.146   7.173  0.00  0.00    +0.000 A 
ATOM      6  C   UNL     1      -4.620  -3.297   7.021  0.00  0.00    +0.000 A 
ATOM      7  C   UNL     1      -4.444  -1.956   6.922  0.00  0.00    +0.000 A 
ATOM      8  C   UNL     1      -3.166  -1.489   7.020  0.00  0.00    +0.000 A 
ATOM      9  C   UNL     1      -2.124  -2.278   7.181  0.00  0.00    +0.000 A 
ATOM     10  C   UNL     1      -2.334  -3.614   7.232  0.00  0.00    +0.000 A 
BRANCH   8  11
ATOM     11  O   UNL     1      -2.919  -0.204   6.922  0.00  0.00    +0.000 OA
ATOM     12  C   UNL     1      -2.071   0.126   5.877  0.00  0.00    +0.000 C 
ENDBRANCH   8  11
ENDBRANCH   4   5
ENDBRANCH   1   3
BRANCH   1  13
ATOM     13  O   UNL     1      -2.833  -8.524   7.926  0.00  0.00    +0.000 OA
BRANCH  13  14
ATOM     14  C   UNL     1      -3.747  -9.095   8.581  0.00  0.00    +0.000 C 
BRANCH  14  15
ATOM     15  C   UNL     1      -3.454 -10.538   8.817  0.00  0.00    +0.000 C 
ATOM     16  C   UNL     1      -2.988 -11.215   7.669  0.00  0.00    +0.000 C 
ENDBRANCH  14  15
BRANCH  14  17
ATOM     17  C   UNL     1      -4.293  -8.348   9.636  0.00  0.00    +0.000 C 
BRANCH  17  18
ATOM     18  C   UNL     1      -3.424  -8.211  10.749  0.00  0.00    +0.000 C 
BRANCH  18  20
ATOM     19  C   UNL     1      -1.765  -6.448  10.577  0.00  0.00    +0.000 C 
ATOM     20  C   UNL     1      -3.221  -6.778  10.820  0.00  0.00    +0.000 C 
ENDBRANCH  18  20
ENDBRANCH  17  18
ENDBRANCH  14  17
ENDBRANCH  13  14
ENDBRANCH   1  13
TORSDOF 9
ENDMDL
MODEL 5
REMARK VINA RESULT:      -3.1      5.742      9.614
REMARK  Name = bg33_1_ligand
REMARK  12 active torsions:
REMARK  status: ('A' for Active; 'I' for Inactive)
REMARK    1  A    between atoms: C_1  and  C_2
REMARK    2  A    between atoms: C_2  and  C_3
REMARK    3  A    between atoms: C_3  and  C_4
REMARK    4  A    between atoms: C_4  and  C_5
REMARK    5  A    between atoms: C_5  and  C_6
REMARK    6  A    between atoms: C_5  and  O_8
REMARK    7  A    between atoms: C_6  and  C_7
REMARK    8  A    between atoms: O_8  and  C_9
REMARK    9  A    between atoms: C_9  and  C_11
REMARK   10  A    between atoms: C_12  and  C_13
REMARK   11  A    between atoms: C_16  and  O_17
REMARK   12  A    between atoms: O_17  and  C_18
REMARK                            x       y       z     vdW  Elec       q    Type
REMARK                         _______ _______ _______ _____ _____    ______ ____
ROOT
ATOM      1  C   UNL     1      -3.496  -5.819   7.681  0.00  0.00    +0.000 C 
ATOM      2  O   UNL     1      -4.691  -5.779   7.807  0.00  0.00    +0.000 OA
ENDROOT
BRANCH   1   3
ATOM      3  C   UNL     1      -2.769  -4.677   7.295  0.00  0.00    +0.000 C 
ATOM      4  C   UNL     1      -3.251  -3.550   7.577  0.00  0.00    +0.000 C 
BRANCH   4   5
ATOM      5  C   UNL     1      -2.737  -2.350   7.135  0.00  0.00    +0.000 A 
ATOM      6  C   UNL     1      -1.432  -2.202   6.866  0.00  0.00    +0.000 A 
ATOM      7  C   UNL     1      -0.910  -1.029   6.432  0.00  0.00    +0.000 A 
ATOM      8  C   UNL     1      -1.780   0.005   6.239  0.00  0.00    +0.000 A 
ATOM      9  C   UNL     1      -3.071  -0.091   6.477  0.00  0.00    +0.000 A 
ATOM     10  C   UNL     1      -3.550  -1.264   6.952  0.00  0.00    +0.000 A 
BRANCH   8  11
ATOM     11  O   UNL     1      -1.343   1.172   5.831  0.00  0.00    +0.000 OA
ATOM     12  C   UNL     1      -1.813   1.540   4.579  0.00  0.00    +0.000 C 
ENDBRANCH   8  11
ENDBRANCH   4   5
ENDBRANCH   1   3
BRANCH   1  13
ATOM     13  O   UNL     1      -2.860  -6.919   7.905  0.00  0.00    +0.000 OA
BRANCH  13  14
ATOM     14  C   UNL     1      -2.957  -7.294   9.105  0.00  0.00    +0.000 C 
BRANCH  14  15
ATOM     15  C   UNL     1      -3.419  -8.707   9.219  0.00  0.00    +0.000 C 
ATOM     16  C   UNL     1      -3.067  -9.507   8.109  0.00  0.00    +0.000 C 
ENDBRANCH  14  15
BRANCH  14  17
ATOM     17  C   UNL     1      -1.932  -6.860   9.960  0.00  0.00    +0.000 C 
BRANCH  17  18
ATOM     18  C   UNL     1      -2.376  -6.538  11.268  0.00  0.00    +0.000 C 
BRANCH  18  20
ATOM     19  C   UNL     1      -1.459  -4.339  10.808  0.00  0.00    +0.000 C 
ATOM     20  C   UNL     1      -2.699  -5.130  11.156  0.00  0.00    +0.000 C 
ENDBRANCH  18  20
ENDBRANCH  17  18
ENDBRANCH  14  17
ENDBRANCH  13  14
ENDBRANCH   1  13
TORSDOF 9
ENDMDL
MODEL 6
REMARK VINA RESULT:      -3.0      6.089      7.235
REMARK  Name = bg33_1_ligand
REMARK  12 active torsions:
REMARK  status: ('A' for Active; 'I' for Inactive)
REMARK    1  A    between atoms: C_1  and  C_2
REMARK    2  A    between atoms: C_2  and  C_3
REMARK    3  A    between atoms: C_3  and  C_4
REMARK    4  A    between atoms: C_4  and  C_5
REMARK    5  A    between atoms: C_5  and  C_6
REMARK    6  A    between atoms: C_5  and  O_8
REMARK    7  A    between atoms: C_6  and  C_7
REMARK    8  A    between atoms: O_8  and  C_9
REMARK    9  A    between atoms: C_9  and  C_11
REMARK   10  A    between atoms: C_12  and  C_13
REMARK   11  A    between atoms: C_16  and  O_17
REMARK   12  A    between atoms: O_17  and  C_18
REMARK                            x       y       z     vdW  Elec       q    Type
REMARK                         _______ _______ _______ _____ _____    ______ ____
ROOT
ATOM      1  C   UNL     1      -0.729  -0.987   6.672  0.00  0.00    +0.000 C 
ATOM      2  O   UNL     1       0.221  -0.301   6.936  0.00  0.00    +0.000 OA
ENDROOT
BRANCH   1   3
ATOM      3  C   UNL     1      -1.062  -2.102   7.467  0.00  0.00    +0.000 C 
ATOM      4  C   UNL     1      -2.005  -2.838   7.081  0.00  0.00    +0.000 C 
BRANCH   4   5
ATOM      5  C   UNL     1      -2.543  -3.868   7.822  0.00  0.00    +0.000 A 
ATOM      6  C   UNL     1      -2.574  -3.826   9.161  0.00  0.00    +0.000 A 
ATOM      7  C   UNL     1      -3.098  -4.831   9.906  0.00  0.00    +0.000 A 
ATOM      8  C   UNL     1      -3.636  -5.888   9.232  0.00  0.00    +0.000 A 
ATOM      9  C   UNL     1      -3.642  -5.973   7.918  0.00  0.00    +0.000 A 
ATOM     10  C   UNL     1      -3.070  -4.972   7.209  0.00  0.00    +0.000 A 
BRANCH   8  11
ATOM     11  O   UNL     1      -4.152  -6.900   9.888  0.00  0.00    +0.000 OA
ATOM     12  C   UNL     1      -4.114  -8.098   9.190  0.00  0.00    +0.000 C 
ENDBRANCH   8  11
ENDBRANCH   4   5
ENDBRANCH   1   3
BRANCH   1  13
ATOM     13  O   UNL     1      -1.466  -0.705   5.652  0.00  0.00    +0.000 OA
BRANCH  13  14
ATOM     14  C   UNL     1      -1.949   0.457   5.715  0.00  0.00    +0.000 C 
BRANCH  14  15
ATOM     15  C   UNL     1      -1.857   1.178   4.413  0.00  0.00    +0.000 C 
ATOM     16  C   UNL     1      -1.055   2.339   4.465  0.00  0.00    +0.000 C 
ENDBRANCH  14  15
BRANCH  14  17
ATOM     17  C   UNL     1      -3.132   0.581   6.459  0.00  0.00    +0.000 C 
BRANCH  17  18
ATOM     18  C   UNL     1      -4.271   0.027   5.819  0.00  0.00    +0.000 C 
BRANCH  18  20
ATOM     19  C   UNL     1      -5.503  -1.973   6.429  0.00  0.00    +0.000 C 
ATOM     20  C   UNL     1      -4.949  -0.649   6.907  0.00  0.00    +0.000 C 
ENDBRANCH  18  20
ENDBRANCH  17  18
ENDBRANCH  14  17
ENDBRANCH  13  14
ENDBRANCH   1  13
TORSDOF 9
ENDMDL
MODEL 7
REMARK VINA RESULT:      -3.0      4.568      7.982
REMARK  Name = bg33_1_ligand
REMARK  12 active torsions:
REMARK  status: ('A' for Active; 'I' for Inactive)
REMARK    1  A    between atoms: C_1  and  C_2
REMARK    2  A    between atoms: C_2  and  C_3
REMARK    3  A    between atoms: C_3  and  C_4
REMARK    4  A    between atoms: C_4  and  C_5
REMARK    5  A    between atoms: C_5  and  C_6
REMARK    6  A    between atoms: C_5  and  O_8
REMARK    7  A    between atoms: C_6  and  C_7
REMARK    8  A    between atoms: O_8  and  C_9
REMARK    9  A    between atoms: C_9  and  C_11
REMARK   10  A    between atoms: C_12  and  C_13
REMARK   11  A    between atoms: C_16  and  O_17
REMARK   12  A    between atoms: O_17  and  C_18
REMARK                            x       y       z     vdW  Elec       q    Type
REMARK                         _______ _______ _______ _____ _____    ______ ____
ROOT
ATOM      1  C   UNL     1       8.435  -7.082   9.367  0.00  0.00    +0.000 C 
ATOM      2  O   UNL     1       8.183  -7.549  10.445  0.00  0.00    +0.000 OA
ENDROOT
BRANCH   1   3
ATOM      3  C   UNL     1       7.866  -5.861   8.954  0.00  0.00    +0.000 C 
ATOM      4  C   UNL     1       6.617  -5.741   9.025  0.00  0.00    +0.000 C 
BRANCH   4   5
ATOM      5  C   UNL     1       5.907  -4.674   8.519  0.00  0.00    +0.000 A 
ATOM      6  C   UNL     1       4.617  -4.480   8.828  0.00  0.00    +0.000 A 
ATOM      7  C   UNL     1       3.903  -3.437   8.338  0.00  0.00    +0.000 A 
ATOM      8  C   UNL     1       4.564  -2.554   7.536  0.00  0.00    +0.000 A 
ATOM      9  C   UNL     1       5.833  -2.691   7.211  0.00  0.00    +0.000 A 
ATOM     10  C   UNL     1       6.501  -3.768   7.683  0.00  0.00    +0.000 A 
BRANCH   8  11
ATOM     11  O   UNL     1       3.933  -1.526   7.018  0.00  0.00    +0.000 OA
ATOM     12  C   UNL     1       2.633  -1.377   7.477  0.00  0.00    +0.000 C 
ENDBRANCH   8  11
ENDBRANCH   4   5
ENDBRANCH   1   3
BRANCH   1  13
ATOM     13  O   UNL     1       9.241  -7.697   8.569  0.00  0.00    +0.000 OA
BRANCH  13  14
ATOM     14  C   UNL     1       8.662  -8.598   7.903  0.00  0.00    +0.000 C 
BRANCH  14  15
ATOM     15  C   UNL     1       8.607  -8.275   6.448  0.00  0.00    +0.000 C 
ATOM     16  C   UNL     1       7.330  -7.861   6.010  0.00  0.00    +0.000 C 
ENDBRANCH  14  15
BRANCH  14  17
ATOM     17  C   UNL     1       8.962  -9.916   8.279  0.00  0.00    +0.000 C 
BRANCH  17  18
ATOM     18  C   UNL     1       7.817 -10.732   8.469  0.00  0.00    +0.000 C 
BRANCH  18  20
ATOM     19  C   UNL     1       7.738 -11.091  10.868  0.00  0.00    +0.000 C 
ATOM     20  C   UNL     1       8.231 -11.617   9.539  0.00  0.00    +0.000 C 
ENDBRANCH  18  20
ENDBRANCH  17  18
ENDBRANCH  14  17
ENDBRANCH  13  14
ENDBRANCH   1  13
TORSDOF 9
ENDMDL
MODEL 8
REMARK VINA RESULT:      -3.0      6.770      8.176
REMARK  Name = bg33_1_ligand
REMARK  12 active torsions:
REMARK  status: ('A' for Active; 'I' for Inactive)
REMARK    1  A    between atoms: C_1  and  C_2
REMARK    2  A    between atoms: C_2  and  C_3
REMARK    3  A    between atoms: C_3  and  C_4
REMARK    4  A    between atoms: C_4  and  C_5
REMARK    5  A    between atoms: C_5  and  C_6
REMARK    6  A    between atoms: C_5  and  O_8
REMARK    7  A    between atoms: C_6  and  C_7
REMARK    8  A    between atoms: O_8  and  C_9
REMARK    9  A    between atoms: C_9  and  C_11
REMARK   10  A    between atoms: C_12  and  C_13
REMARK   11  A    between atoms: C_16  and  O_17
REMARK   12  A    between atoms: O_17  and  C_18
REMARK                            x       y       z     vdW  Elec       q    Type
REMARK                         _______ _______ _______ _____ _____    ______ ____
ROOT
ATOM      1  C   UNL     1      -3.107  -7.629   7.273  0.00  0.00    +0.000 C 
ATOM      2  O   UNL     1      -4.094  -7.538   6.593  0.00  0.00    +0.000 OA
ENDROOT
BRANCH   1   3
ATOM      3  C   UNL     1      -2.705  -8.869   7.807  0.00  0.00    +0.000 C 
ATOM      4  C   UNL     1      -3.601  -9.704   8.093  0.00  0.00    +0.000 C 
BRANCH   4   5
ATOM      5  C   UNL     1      -3.377 -10.889   8.759  0.00  0.00    +0.000 A 
ATOM      6  C   UNL     1      -3.777 -11.067  10.026  0.00  0.00    +0.000 A 
ATOM      7  C   UNL     1      -3.564 -12.226  10.697  0.00  0.00    +0.000 A 
ATOM      8  C   UNL     1      -2.951 -13.236  10.015  0.00  0.00    +0.000 A 
ATOM      9  C   UNL     1      -2.549 -13.117   8.766  0.00  0.00    +0.000 A 
ATOM     10  C   UNL     1      -2.739 -11.931   8.143  0.00  0.00    +0.000 A 
BRANCH   8  11
ATOM     11  O   UNL     1      -2.704 -14.381  10.604  0.00  0.00    +0.000 OA
ATOM     12  C   UNL     1      -3.627 -14.720  11.581  0.00  0.00    +0.000 C 
ENDBRANCH   8  11
ENDBRANCH   4   5
ENDBRANCH   1   3
BRANCH   1  13
ATOM     13  O   UNL     1      -2.395  -6.582   7.520  0.00  0.00    +0.000 OA
BRANCH  13  14
ATOM     14  C   UNL     1      -3.099  -5.592   7.859  0.00  0.00    +0.000 C 
BRANCH  14  15
ATOM     15  C   UNL     1      -3.333  -5.545   9.331  0.00  0.00    +0.000 C 
ATOM     16  C   UNL     1      -2.144  -5.502  10.091  0.00  0.00    +0.000 C 
ENDBRANCH  14  15
BRANCH  14  17
ATOM     17  C   UNL     1      -2.812  -4.390   7.194  0.00  0.00    +0.000 C 
BRANCH  17  18
ATOM     18  C   UNL     1      -3.787  -3.379   7.395  0.00  0.00    +0.000 C 
BRANCH  18  20
ATOM     19  C   UNL     1      -1.621  -2.352   7.016  0.00  0.00    +0.000 C 
ATOM     20  C   UNL     1      -2.979  -2.207   7.666  0.00  0.00    +0.000 C 
ENDBRANCH  18  20
ENDBRANCH  17  18
ENDBRANCH  14  17
ENDBRANCH  13  14
ENDBRANCH   1  13
TORSDOF 9
ENDMDL
MODEL 9
REMARK VINA RESULT:      -3.0      7.968     10.564
REMARK  Name = bg33_1_ligand
REMARK  12 active torsions:
REMARK  status: ('A' for Active; 'I' for Inactive)
REMARK    1  A    between atoms: C_1  and  C_2
REMARK    2  A    between atoms: C_2  and  C_3
REMARK    3  A    between atoms: C_3  and  C_4
REMARK    4  A    between atoms: C_4  and  C_5
REMARK    5  A    between atoms: C_5  and  C_6
REMARK    6  A    between atoms: C_5  and  O_8
REMARK    7  A    between atoms: C_6  and  C_7
REMARK    8  A    between atoms: O_8  and  C_9
REMARK    9  A    between atoms: C_9  and  C_11
REMARK   10  A    between atoms: C_12  and  C_13
REMARK   11  A    between atoms: C_16  and  O_17
REMARK   12  A    between atoms: O_17  and  C_18
REMARK                            x       y       z     vdW  Elec       q    Type
REMARK                         _______ _______ _______ _____ _____    ______ ____
ROOT
ATOM      1  C   UNL     1      -3.352 -11.642   8.093  0.00  0.00    +0.000 C 
ATOM      2  O   UNL     1      -2.452 -12.146   8.711  0.00  0.00    +0.000 OA
ENDROOT
BRANCH   1   3
ATOM      3  C   UNL     1      -3.602 -10.259   8.173  0.00  0.00    +0.000 C 
ATOM      4  C   UNL     1      -2.652  -9.474   7.921  0.00  0.00    +0.000 C 
BRANCH   4   5
ATOM      5  C   UNL     1      -2.699  -8.109   8.104  0.00  0.00    +0.000 A 
ATOM      6  C   UNL     1      -2.437  -7.552   9.295  0.00  0.00    +0.000 A 
ATOM      7  C   UNL     1      -2.480  -6.211   9.494  0.00  0.00    +0.000 A 
ATOM      8  C   UNL     1      -2.769  -5.432   8.412  0.00  0.00    +0.000 A 
ATOM      9  C   UNL     1      -3.023  -5.928   7.218  0.00  0.00    +0.000 A 
ATOM     10  C   UNL     1      -3.014  -7.272   7.069  0.00  0.00    +0.000 A 
BRANCH   8  11
ATOM     11  O   UNL     1      -2.837  -4.128   8.532  0.00  0.00    +0.000 OA
ATOM     12  C   UNL     1      -2.447  -3.438   7.395  0.00  0.00    +0.000 C 
ENDBRANCH   8  11
ENDBRANCH   4   5
ENDBRANCH   1   3
BRANCH   1  13
ATOM     13  O   UNL     1      -4.103 -12.371   7.339  0.00  0.00    +0.000 OA
BRANCH  13  14
ATOM     14  C   UNL     1      -3.710 -12.384   6.140  0.00  0.00    +0.000 C 
BRANCH  14  15
ATOM     15  C   UNL     1      -2.892 -13.591   5.829  0.00  0.00    +0.000 C 
ATOM     16  C   UNL     1      -1.558 -13.292   5.473  0.00  0.00    +0.000 C 
ENDBRANCH  14  15
BRANCH  14  17
ATOM     17  C   UNL     1      -4.651 -11.958   5.190  0.00  0.00    +0.000 C 
BRANCH  17  18
ATOM     18  C   UNL     1      -4.168 -10.945   4.322  0.00  0.00    +0.000 C 
BRANCH  18  20
ATOM     19  C   UNL     1      -4.435  -8.554   3.995  0.00  0.00    +0.000 C 
ATOM     20  C   UNL     1      -4.848  -9.760   4.808  0.00  0.00    +0.000 C 
ENDBRANCH  18  20
ENDBRANCH  17  18
ENDBRANCH  14  17
ENDBRANCH  13  14
ENDBRANCH   1  13
TORSDOF 9
ENDMDL
