REMARK  Name = s2_esm2_control_ligand
REMARK  12 active torsions:
REMARK  status: ('A' for Active; 'I' for Inactive)
REMARK    1  A    between atoms: C_1  and  C_2
REMARK    2  A    between atoms: C_2  and  C_3
REMARK    3  A    between atoms: C_3  and  C_4
REMARK    4  A    between atoms: C_4  and  C_5
REMARK    5  A    between atoms: C_5  and  C_6
REMARK    6  A    between atoms: C_5  and  O_8
REMARK    7  A    between atoms: C_6  and  C_7
REMARK    8  A    between atoms: O_8  and  C_9
REMARK    9  A    between atoms: C_9  and  C_11
REMARK   10  A    between atoms: C_12  and  C_13
REMARK   11  A    between atoms: C_16  and  O_17
REMARK   12  A    between atoms: O_17  and  C_18
REMARK                            x       y       z     vdW  Elec       q    Type
REMARK                         _______ _______ _______ _____ _____    ______ ____
ROOT
ATOM      1  C   UNL     1      -2.504  10.012   6.486  0.00  0.00    +0.000 C 
ATOM      2  O   UNL     1      -1.965  11.042   6.794  0.00  0.00    +0.000 OA
ENDROOT
BRANCH   1   3
ATOM      3  C   UNL     1      -1.836   8.687   6.550  0.00  0.00    +0.000 C 
ATOM      4  C   UNL     1      -0.550   8.629   6.997  0.00  0.00    +0.000 C 
BRANCH   4   5
ATOM      5  C   UNL     1       0.205   7.369   7.146  0.00  0.00    +0.000 A 
ATOM      6  C   UNL     1       1.521   7.442   7.567  0.00  0.00    +0.000 A 
ATOM      7  C   UNL     1       2.272   6.295   7.740  0.00  0.00    +0.000 A 
ATOM      8  C   UNL     1       1.724   5.062   7.496  0.00  0.00    +0.000 A 
ATOM      9  C   UNL     1       0.413   4.984   7.080  0.00  0.00    +0.000 A 
ATOM     10  C   UNL     1      -0.341   6.137   6.904  0.00  0.00    +0.000 A 
BRANCH   8  11
ATOM     11  O   UNL     1       2.500   3.970   7.685  0.00  0.00    +0.000 OA
ATOM     12  C   UNL     1       1.944   2.670   7.536  0.00  0.00    +0.000 C 
ENDBRANCH   8  11
ENDBRANCH   4   5
ENDBRANCH   1   3
BRANCH   1  13
ATOM     13  O   UNL     1      -3.788   9.996   6.073  0.00  0.00    +0.000 OA
BRANCH  13  14
ATOM     14  C   UNL     1      -4.525  11.206   6.045  0.00  0.00    +0.000 C 
BRANCH  14  15
ATOM     15  C   UNL     1      -5.103  11.389   4.644  0.00  0.00    +0.000 C 
ATOM     16  C   UNL     1      -4.620  12.638   3.927  0.00  0.00    +0.000 C 
ENDBRANCH  14  15
BRANCH  14  17
ATOM     17  C   UNL     1      -5.644  11.144   7.057  0.00  0.00    +0.000 C 
BRANCH  17  18
ATOM     18  C   UNL     1      -5.198  10.760   8.433  0.00  0.00    +0.000 C 
BRANCH  18  20
ATOM     19  C   UNL     1      -5.871  10.293  10.790  0.00  0.00    +0.000 C 
ATOM     20  C   UNL     1      -6.329  10.776   9.418  0.00  0.00    +0.000 C 
ENDBRANCH  18  20
ENDBRANCH  17  18
ENDBRANCH  14  17
ENDBRANCH  13  14
ENDBRANCH   1  13
TORSDOF 9
