MODEL 1
REMARK VINA RESULT:      -4.4      0.000      0.000
REMARK  Name = s2_esm2_control_ligand
REMARK  12 active torsions:
REMARK  status: ('A' for Active; 'I' for Inactive)
REMARK    1  A    between atoms: C_1  and  C_2
REMARK    2  A    between atoms: C_2  and  C_3
REMARK    3  A    between atoms: C_3  and  C_4
REMARK    4  A    between atoms: C_4  and  C_5
REMARK    5  A    between atoms: C_5  and  C_6
REMARK    6  A    between atoms: C_5  and  O_8
REMARK    7  A    between atoms: C_6  and  C_7
REMARK    8  A    between atoms: O_8  and  C_9
REMARK    9  A    between atoms: C_9  and  C_11
REMARK   10  A    between atoms: C_12  and  C_13
REMARK   11  A    between atoms: C_16  and  O_17
REMARK   12  A    between atoms: O_17  and  C_18
REMARK                            x       y       z     vdW  Elec       q    Type
REMARK                         _______ _______ _______ _____ _____    ______ ____
ROOT
ATOM      1  C   UNL     1      -7.284   8.886   5.490  0.00  0.00    +0.000 C 
ATOM      2  O   UNL     1      -7.681   9.106   6.603  0.00  0.00    +0.000 OA
ENDROOT
BRANCH   1   3
ATOM      3  C   UNL     1      -5.845   8.776   5.140  0.00  0.00    +0.000 C 
ATOM      4  C   UNL     1      -5.031   9.839   5.395  0.00  0.00    +0.000 C 
BRANCH   4   5
ATOM      5  C   UNL     1      -3.578   9.836   5.132  0.00  0.00    +0.000 A 
ATOM      6  C   UNL     1      -3.100  10.621   4.098  0.00  0.00    +0.000 A 
ATOM      7  C   UNL     1      -1.748  10.670   3.816  0.00  0.00    +0.000 A 
ATOM      8  C   UNL     1      -0.856   9.939   4.558  0.00  0.00    +0.000 A 
ATOM      9  C   UNL     1      -1.328   9.159   5.591  0.00  0.00    +0.000 A 
ATOM     10  C   UNL     1      -2.686   9.107   5.873  0.00  0.00    +0.000 A 
BRANCH   8  11
ATOM     11  O   UNL     1       0.457  10.026   4.244  0.00  0.00    +0.000 OA
ATOM     12  C   UNL     1       0.912   9.593   2.968  0.00  0.00    +0.000 C 
ENDBRANCH   8  11
ENDBRANCH   4   5
ENDBRANCH   1   3
BRANCH   1  13
ATOM     13  O   UNL     1      -8.146   8.700   4.469  0.00  0.00    +0.000 OA
BRANCH  13  14
ATOM     14  C   UNL     1      -7.748   7.917   3.356  0.00  0.00    +0.000 C 
BRANCH  14  15
ATOM     15  C   UNL     1      -8.382   6.535   3.485  0.00  0.00    +0.000 C 
ATOM     16  C   UNL     1      -7.894   5.525   2.460  0.00  0.00    +0.000 C 
ENDBRANCH  14  15
BRANCH  14  17
ATOM     17  C   UNL     1      -8.210   8.576   2.079  0.00  0.00    +0.000 C 
BRANCH  17  18
ATOM     18  C   UNL     1      -7.097   8.956   1.154  0.00  0.00    +0.000 C 
BRANCH  18  20
ATOM     19  C   UNL     1      -5.203  10.549   0.834  0.00  0.00    +0.000 C 
ATOM     20  C   UNL     1      -6.045   9.773   1.842  0.00  0.00    +0.000 C 
ENDBRANCH  18  20
ENDBRANCH  17  18
ENDBRANCH  14  17
ENDBRANCH  13  14
ENDBRANCH   1  13
TORSDOF 9
ENDMDL
MODEL 2
REMARK VINA RESULT:      -4.3      2.098      6.809
REMARK  Name = s2_esm2_control_ligand
REMARK  12 active torsions:
REMARK  status: ('A' for Active; 'I' for Inactive)
REMARK    1  A    between atoms: C_1  and  C_2
REMARK    2  A    between atoms: C_2  and  C_3
REMARK    3  A    between atoms: C_3  and  C_4
REMARK    4  A    between atoms: C_4  and  C_5
REMARK    5  A    between atoms: C_5  and  C_6
REMARK    6  A    between atoms: C_5  and  O_8
REMARK    7  A    between atoms: C_6  and  C_7
REMARK    8  A    between atoms: O_8  and  C_9
REMARK    9  A    between atoms: C_9  and  C_11
REMARK   10  A    between atoms: C_12  and  C_13
REMARK   11  A    between atoms: C_16  and  O_17
REMARK   12  A    between atoms: O_17  and  C_18
REMARK                            x       y       z     vdW  Elec       q    Type
REMARK                         _______ _______ _______ _____ _____    ______ ____
ROOT
ATOM      1  C   UNL     1      -6.810   9.314   5.339  0.00  0.00    +0.000 C 
ATOM      2  O   UNL     1      -7.515   9.550   6.285  0.00  0.00    +0.000 OA
ENDROOT
BRANCH   1   3
ATOM      3  C   UNL     1      -6.850   8.034   4.587  0.00  0.00    +0.000 C 
ATOM      4  C   UNL     1      -7.862   7.835   3.697  0.00  0.00    +0.000 C 
BRANCH   4   5
ATOM      5  C   UNL     1      -7.986   6.624   2.861  0.00  0.00    +0.000 A 
ATOM      6  C   UNL     1      -7.967   5.392   3.489  0.00  0.00    +0.000 A 
ATOM      7  C   UNL     1      -8.095   4.225   2.759  0.00  0.00    +0.000 A 
ATOM      8  C   UNL     1      -8.243   4.270   1.397  0.00  0.00    +0.000 A 
ATOM      9  C   UNL     1      -8.266   5.495   0.767  0.00  0.00    +0.000 A 
ATOM     10  C   UNL     1      -8.135   6.667   1.500  0.00  0.00    +0.000 A 
BRANCH   8  11
ATOM     11  O   UNL     1      -8.369   3.100   0.730  0.00  0.00    +0.000 OA
ATOM     12  C   UNL     1      -7.572   1.982   1.101  0.00  0.00    +0.000 C 
ENDBRANCH   8  11
ENDBRANCH   4   5
ENDBRANCH   1   3
BRANCH   1  13
ATOM     13  O   UNL     1      -5.933  10.231   4.880  0.00  0.00    +0.000 OA
BRANCH  13  14
ATOM     14  C   UNL     1      -4.726   9.798   4.276  0.00  0.00    +0.000 C 
BRANCH  14  15
ATOM     15  C   UNL     1      -4.551  10.542   2.955  0.00  0.00    +0.000 C 
ATOM     16  C   UNL     1      -5.464  10.061   1.841  0.00  0.00    +0.000 C 
ENDBRANCH  14  15
BRANCH  14  17
ATOM     17  C   UNL     1      -3.563  10.097   5.192  0.00  0.00    +0.000 C 
BRANCH  17  18
ATOM     18  C   UNL     1      -2.924   8.879   5.781  0.00  0.00    +0.000 C 
BRANCH  18  20
ATOM     19  C   UNL     1      -0.564   9.269   5.072  0.00  0.00    +0.000 C 
ATOM     20  C   UNL     1      -1.525   9.145   6.249  0.00  0.00    +0.000 C 
ENDBRANCH  18  20
ENDBRANCH  17  18
ENDBRANCH  14  17
ENDBRANCH  13  14
ENDBRANCH   1  13
TORSDOF 9
ENDMDL
MODEL 3
REMARK VINA RESULT:      -4.3      2.177      3.961
REMARK  Name = s2_esm2_control_ligand
REMARK  12 active torsions:
REMARK  status: ('A' for Active; 'I' for Inactive)
REMARK    1  A    between atoms: C_1  and  C_2
REMARK    2  A    between atoms: C_2  and  C_3
REMARK    3  A    between atoms: C_3  and  C_4
REMARK    4  A    between atoms: C_4  and  C_5
REMARK    5  A    between atoms: C_5  and  C_6
REMARK    6  A    between atoms: C_5  and  O_8
REMARK    7  A    between atoms: C_6  and  C_7
REMARK    8  A    between atoms: O_8  and  C_9
REMARK    9  A    between atoms: C_9  and  C_11
REMARK   10  A    between atoms: C_12  and  C_13
REMARK   11  A    between atoms: C_16  and  O_17
REMARK   12  A    between atoms: O_17  and  C_18
REMARK                            x       y       z     vdW  Elec       q    Type
REMARK                         _______ _______ _______ _____ _____    ______ ____
ROOT
ATOM      1  C   UNL     1      -9.667   7.277   4.445  0.00  0.00    +0.000 C 
ATOM      2  O   UNL     1     -10.712   7.642   4.914  0.00  0.00    +0.000 OA
ENDROOT
BRANCH   1   3
ATOM      3  C   UNL     1      -8.362   7.915   4.755  0.00  0.00    +0.000 C 
ATOM      4  C   UNL     1      -7.562   8.293   3.718  0.00  0.00    +0.000 C 
BRANCH   4   5
ATOM      5  C   UNL     1      -6.264   8.975   3.897  0.00  0.00    +0.000 A 
ATOM      6  C   UNL     1      -5.737   9.667   2.821  0.00  0.00    +0.000 A 
ATOM      7  C   UNL     1      -4.534  10.338   2.934  0.00  0.00    +0.000 A 
ATOM      8  C   UNL     1      -3.841  10.328   4.117  0.00  0.00    +0.000 A 
ATOM      9  C   UNL     1      -4.364   9.643   5.192  0.00  0.00    +0.000 A 
ATOM     10  C   UNL     1      -5.572   8.967   5.078  0.00  0.00    +0.000 A 
BRANCH   8  11
ATOM     11  O   UNL     1      -2.671  11.004   4.177  0.00  0.00    +0.000 OA
ATOM     12  C   UNL     1      -1.878  10.947   5.355  0.00  0.00    +0.000 C 
ENDBRANCH   8  11
ENDBRANCH   4   5
ENDBRANCH   1   3
BRANCH   1  13
ATOM     13  O   UNL     1      -9.613   6.223   3.604  0.00  0.00    +0.000 OA
BRANCH  13  14
ATOM     14  C   UNL     1      -9.319   4.936   4.119  0.00  0.00    +0.000 C 
BRANCH  14  15
ATOM     15  C   UNL     1     -10.480   4.004   3.785  0.00  0.00    +0.000 C 
ATOM     16  C   UNL     1     -10.618   2.817   4.723  0.00  0.00    +0.000 C 
ENDBRANCH  14  15
BRANCH  14  17
ATOM     17  C   UNL     1      -8.047   4.416   3.493  0.00  0.00    +0.000 C 
BRANCH  17  18
ATOM     18  C   UNL     1      -7.758   4.987   2.141  0.00  0.00    +0.000 C 
BRANCH  18  20
ATOM     19  C   UNL     1      -6.801   2.710   1.790  0.00  0.00    +0.000 C 
ATOM     20  C   UNL     1      -7.451   3.922   1.131  0.00  0.00    +0.000 C 
ENDBRANCH  18  20
ENDBRANCH  17  18
ENDBRANCH  14  17
ENDBRANCH  13  14
ENDBRANCH   1  13
TORSDOF 9
ENDMDL
MODEL 4
REMARK VINA RESULT:      -4.2      1.641      2.539
REMARK  Name = s2_esm2_control_ligand
REMARK  12 active torsions:
REMARK  status: ('A' for Active; 'I' for Inactive)
REMARK    1  A    between atoms: C_1  and  C_2
REMARK    2  A    between atoms: C_2  and  C_3
REMARK    3  A    between atoms: C_3  and  C_4
REMARK    4  A    between atoms: C_4  and  C_5
REMARK    5  A    between atoms: C_5  and  C_6
REMARK    6  A    between atoms: C_5  and  O_8
REMARK    7  A    between atoms: C_6  and  C_7
REMARK    8  A    between atoms: O_8  and  C_9
REMARK    9  A    between atoms: C_9  and  C_11
REMARK   10  A    between atoms: C_12  and  C_13
REMARK   11  A    between atoms: C_16  and  O_17
REMARK   12  A    between atoms: O_17  and  C_18
REMARK                            x       y       z     vdW  Elec       q    Type
REMARK                         _______ _______ _______ _____ _____    ______ ____
ROOT
ATOM      1  C   UNL     1      -8.599   7.693   4.429  0.00  0.00    +0.000 C 
ATOM      2  O   UNL     1      -9.559   8.418   4.437  0.00  0.00    +0.000 OA
ENDROOT
BRANCH   1   3
ATOM      3  C   UNL     1      -7.218   8.162   4.707  0.00  0.00    +0.000 C 
ATOM      4  C   UNL     1      -6.613   8.977   3.798  0.00  0.00    +0.000 C 
BRANCH   4   5
ATOM      5  C   UNL     1      -5.261   9.542   3.982  0.00  0.00    +0.000 A 
ATOM      6  C   UNL     1      -4.590   9.259   5.158  0.00  0.00    +0.000 A 
ATOM      7  C   UNL     1      -3.316   9.746   5.378  0.00  0.00    +0.000 A 
ATOM      8  C   UNL     1      -2.694  10.521   4.432  0.00  0.00    +0.000 A 
ATOM      9  C   UNL     1      -3.357  10.802   3.258  0.00  0.00    +0.000 A 
ATOM     10  C   UNL     1      -4.639  10.314   3.038  0.00  0.00    +0.000 A 
BRANCH   8  11
ATOM     11  O   UNL     1      -1.445  10.969   4.695  0.00  0.00    +0.000 OA
ATOM     12  C   UNL     1      -0.781  10.564   5.885  0.00  0.00    +0.000 C 
ENDBRANCH   8  11
ENDBRANCH   4   5
ENDBRANCH   1   3
BRANCH   1  13
ATOM     13  O   UNL     1      -8.727   6.373   4.182  0.00  0.00    +0.000 OA
BRANCH  13  14
ATOM     14  C   UNL     1      -8.086   5.813   3.049  0.00  0.00    +0.000 C 
BRANCH  14  15
ATOM     15  C   UNL     1      -8.063   4.295   3.207  0.00  0.00    +0.000 C 
ATOM     16  C   UNL     1      -7.307   3.564   2.111  0.00  0.00    +0.000 C 
ENDBRANCH  14  15
BRANCH  14  17
ATOM     17  C   UNL     1      -8.844   6.187   1.798  0.00  0.00    +0.000 C 
BRANCH  17  18
ATOM     18  C   UNL     1      -8.010   6.880   0.766  0.00  0.00    +0.000 C 
BRANCH  18  20
ATOM     19  C   UNL     1      -7.123   9.119   0.116  0.00  0.00    +0.000 C 
ATOM     20  C   UNL     1      -8.304   8.349   0.697  0.00  0.00    +0.000 C 
ENDBRANCH  18  20
ENDBRANCH  17  18
ENDBRANCH  14  17
ENDBRANCH  13  14
ENDBRANCH   1  13
TORSDOF 9
ENDMDL
MODEL 5
REMARK VINA RESULT:      -4.1      2.018      3.580
REMARK  Name = s2_esm2_control_ligand
REMARK  12 active torsions:
REMARK  status: ('A' for Active; 'I' for Inactive)
REMARK    1  A    between atoms: C_1  and  C_2
REMARK    2  A    between atoms: C_2  and  C_3
REMARK    3  A    between atoms: C_3  and  C_4
REMARK    4  A    between atoms: C_4  and  C_5
REMARK    5  A    between atoms: C_5  and  C_6
REMARK    6  A    between atoms: C_5  and  O_8
REMARK    7  A    between atoms: C_6  and  C_7
REMARK    8  A    between atoms: O_8  and  C_9
REMARK    9  A    between atoms: C_9  and  C_11
REMARK   10  A    between atoms: C_12  and  C_13
REMARK   11  A    between atoms: C_16  and  O_17
REMARK   12  A    between atoms: O_17  and  C_18
REMARK                            x       y       z     vdW  Elec       q    Type
REMARK                         _______ _______ _______ _____ _____    ______ ____
ROOT
ATOM      1  C   UNL     1      -7.221   8.781   5.157  0.00  0.00    +0.000 C 
ATOM      2  O   UNL     1      -8.092   8.296   4.486  0.00  0.00    +0.000 OA
ENDROOT
BRANCH   1   3
ATOM      3  C   UNL     1      -5.839   9.013   4.663  0.00  0.00    +0.000 C 
ATOM      4  C   UNL     1      -4.880   9.372   5.562  0.00  0.00    +0.000 C 
BRANCH   4   5
ATOM      5  C   UNL     1      -3.465   9.588   5.201  0.00  0.00    +0.000 A 
ATOM      6  C   UNL     1      -3.180  10.468   4.172  0.00  0.00    +0.000 A 
ATOM      7  C   UNL     1      -1.873  10.722   3.802  0.00  0.00    +0.000 A 
ATOM      8  C   UNL     1      -0.835  10.104   4.449  0.00  0.00    +0.000 A 
ATOM      9  C   UNL     1      -1.113   9.230   5.476  0.00  0.00    +0.000 A 
ATOM     10  C   UNL     1      -2.426   8.973   5.847  0.00  0.00    +0.000 A 
BRANCH   8  11
ATOM     11  O   UNL     1       0.426  10.391   4.051  0.00  0.00    +0.000 OA
ATOM     12  C   UNL     1       0.981   9.730   2.921  0.00  0.00    +0.000 C 
ENDBRANCH   8  11
ENDBRANCH   4   5
ENDBRANCH   1   3
BRANCH   1  13
ATOM     13  O   UNL     1      -7.458   9.175   6.425  0.00  0.00    +0.000 OA
BRANCH  13  14
ATOM     14  C   UNL     1      -8.398  10.206   6.669  0.00  0.00    +0.000 C 
BRANCH  14  15
ATOM     15  C   UNL     1      -8.649  10.288   8.173  0.00  0.00    +0.000 C 
ATOM     16  C   UNL     1     -10.110  10.454   8.555  0.00  0.00    +0.000 C 
ENDBRANCH  14  15
BRANCH  14  17
ATOM     17  C   UNL     1      -7.852  11.522   6.169  0.00  0.00    +0.000 C 
BRANCH  17  18
ATOM     18  C   UNL     1      -6.959  12.220   7.146  0.00  0.00    +0.000 C 
BRANCH  18  20
ATOM     19  C   UNL     1      -5.887  12.930   5.007  0.00  0.00    +0.000 C 
ATOM     20  C   UNL     1      -5.695  12.711   6.504  0.00  0.00    +0.000 C 
ENDBRANCH  18  20
ENDBRANCH  17  18
ENDBRANCH  14  17
ENDBRANCH  13  14
ENDBRANCH   1  13
TORSDOF 9
ENDMDL
MODEL 6
REMARK VINA RESULT:      -4.1      1.771      7.182
REMARK  Name = s2_esm2_control_ligand
REMARK  12 active torsions:
REMARK  status: ('A' for Active; 'I' for Inactive)
REMARK    1  A    between atoms: C_1  and  C_2
REMARK    2  A    between atoms: C_2  and  C_3
REMARK    3  A    between atoms: C_3  and  C_4
REMARK    4  A    between atoms: C_4  and  C_5
REMARK    5  A    between atoms: C_5  and  C_6
REMARK    6  A    between atoms: C_5  and  O_8
REMARK    7  A    between atoms: C_6  and  C_7
REMARK    8  A    between atoms: O_8  and  C_9
REMARK    9  A    between atoms: C_9  and  C_11
REMARK   10  A    between atoms: C_12  and  C_13
REMARK   11  A    between atoms: C_16  and  O_17
REMARK   12  A    between atoms: O_17  and  C_18
REMARK                            x       y       z     vdW  Elec       q    Type
REMARK                         _______ _______ _______ _____ _____    ______ ____
ROOT
ATOM      1  C   UNL     1      -0.730   9.875   6.066  0.00  0.00    +0.000 C 
ATOM      2  O   UNL     1      -0.593  10.849   6.757  0.00  0.00    +0.000 OA
ENDROOT
BRANCH   1   3
ATOM      3  C   UNL     1      -2.051   9.388   5.591  0.00  0.00    +0.000 C 
ATOM      4  C   UNL     1      -2.844  10.244   4.887  0.00  0.00    +0.000 C 
BRANCH   4   5
ATOM      5  C   UNL     1      -4.156   9.864   4.327  0.00  0.00    +0.000 A 
ATOM      6  C   UNL     1      -5.042   9.183   5.142  0.00  0.00    +0.000 A 
ATOM      7  C   UNL     1      -6.291   8.816   4.677  0.00  0.00    +0.000 A 
ATOM      8  C   UNL     1      -6.673   9.123   3.396  0.00  0.00    +0.000 A 
ATOM      9  C   UNL     1      -5.796   9.805   2.582  0.00  0.00    +0.000 A 
ATOM     10  C   UNL     1      -4.540  10.171   3.049  0.00  0.00    +0.000 A 
BRANCH   8  11
ATOM     11  O   UNL     1      -7.908   8.746   2.991  0.00  0.00    +0.000 OA
ATOM     12  C   UNL     1      -8.583   7.690   3.663  0.00  0.00    +0.000 C 
ENDBRANCH   8  11
ENDBRANCH   4   5
ENDBRANCH   1   3
BRANCH   1  13
ATOM     13  O   UNL     1       0.336   9.159   5.652  0.00  0.00    +0.000 OA
BRANCH  13  14
ATOM     14  C   UNL     1       0.487   8.870   4.273  0.00  0.00    +0.000 C 
BRANCH  14  15
ATOM     15  C   UNL     1       0.960  10.135   3.561  0.00  0.00    +0.000 C 
ATOM     16  C   UNL     1       0.044  10.603   2.444  0.00  0.00    +0.000 C 
ENDBRANCH  14  15
BRANCH  14  17
ATOM     17  C   UNL     1       1.505   7.769   4.092  0.00  0.00    +0.000 C 
BRANCH  17  18
ATOM     18  C   UNL     1       1.136   6.767   3.044  0.00  0.00    +0.000 C 
BRANCH  18  20
ATOM     19  C   UNL     1       1.495   7.587   0.715  0.00  0.00    +0.000 C 
ATOM     20  C   UNL     1       2.080   6.795   1.879  0.00  0.00    +0.000 C 
ENDBRANCH  18  20
ENDBRANCH  17  18
ENDBRANCH  14  17
ENDBRANCH  13  14
ENDBRANCH   1  13
TORSDOF 9
ENDMDL
MODEL 7
REMARK VINA RESULT:      -4.1      2.719      4.573
REMARK  Name = s2_esm2_control_ligand
REMARK  12 active torsions:
REMARK  status: ('A' for Active; 'I' for Inactive)
REMARK    1  A    between atoms: C_1  and  C_2
REMARK    2  A    between atoms: C_2  and  C_3
REMARK    3  A    between atoms: C_3  and  C_4
REMARK    4  A    between atoms: C_4  and  C_5
REMARK    5  A    between atoms: C_5  and  C_6
REMARK    6  A    between atoms: C_5  and  O_8
REMARK    7  A    between atoms: C_6  and  C_7
REMARK    8  A    between atoms: O_8  and  C_9
REMARK    9  A    between atoms: C_9  and  C_11
REMARK   10  A    between atoms: C_12  and  C_13
REMARK   11  A    between atoms: C_16  and  O_17
REMARK   12  A    between atoms: O_17  and  C_18
REMARK                            x       y       z     vdW  Elec       q    Type
REMARK                         _______ _______ _______ _____ _____    ______ ____
ROOT
ATOM      1  C   UNL     1      -8.021   8.613   5.325  0.00  0.00    +0.000 C 
ATOM      2  O   UNL     1      -8.433   7.652   4.729  0.00  0.00    +0.000 OA
ENDROOT
BRANCH   1   3
ATOM      3  C   UNL     1      -6.577   8.912   5.498  0.00  0.00    +0.000 C 
ATOM      4  C   UNL     1      -5.870   9.346   4.417  0.00  0.00    +0.000 C 
BRANCH   4   5
ATOM      5  C   UNL     1      -4.441   9.716   4.472  0.00  0.00    +0.000 A 
ATOM      6  C   UNL     1      -3.939  10.531   3.473  0.00  0.00    +0.000 A 
ATOM      7  C   UNL     1      -2.614  10.923   3.481  0.00  0.00    +0.000 A 
ATOM      8  C   UNL     1      -1.773  10.509   4.482  0.00  0.00    +0.000 A 
ATOM      9  C   UNL     1      -2.269   9.701   5.480  0.00  0.00    +0.000 A 
ATOM     10  C   UNL     1      -3.600   9.304   5.471  0.00  0.00    +0.000 A 
BRANCH   8  11
ATOM     11  O   UNL     1      -0.486  10.925   4.446  0.00  0.00    +0.000 OA
ATOM     12  C   UNL     1       0.544  10.089   4.958  0.00  0.00    +0.000 C 
ENDBRANCH   8  11
ENDBRANCH   4   5
ENDBRANCH   1   3
BRANCH   1  13
ATOM     13  O   UNL     1      -8.869   9.509   5.869  0.00  0.00    +0.000 OA
BRANCH  13  14
ATOM     14  C   UNL     1      -8.359  10.528   6.711  0.00  0.00    +0.000 C 
BRANCH  14  15
ATOM     15  C   UNL     1      -8.789  11.881   6.150  0.00  0.00    +0.000 C 
ATOM     16  C   UNL     1      -7.914  12.396   5.021  0.00  0.00    +0.000 C 
ENDBRANCH  14  15
BRANCH  14  17
ATOM     17  C   UNL     1      -8.906  10.355   8.108  0.00  0.00    +0.000 C 
BRANCH  17  18
ATOM     18  C   UNL     1      -9.020  11.634   8.878  0.00  0.00    +0.000 C 
BRANCH  18  20
ATOM     19  C   UNL     1      -7.856  13.292  10.334  0.00  0.00    +0.000 C 
ATOM     20  C   UNL     1      -7.807  11.898   9.718  0.00  0.00    +0.000 C 
ENDBRANCH  18  20
ENDBRANCH  17  18
ENDBRANCH  14  17
ENDBRANCH  13  14
ENDBRANCH   1  13
TORSDOF 9
ENDMDL
MODEL 8
REMARK VINA RESULT:      -4.1      1.591      2.982
REMARK  Name = s2_esm2_control_ligand
REMARK  12 active torsions:
REMARK  status: ('A' for Active; 'I' for Inactive)
REMARK    1  A    between atoms: C_1  and  C_2
REMARK    2  A    between atoms: C_2  and  C_3
REMARK    3  A    between atoms: C_3  and  C_4
REMARK    4  A    between atoms: C_4  and  C_5
REMARK    5  A    between atoms: C_5  and  C_6
REMARK    6  A    between atoms: C_5  and  O_8
REMARK    7  A    between atoms: C_6  and  C_7
REMARK    8  A    between atoms: O_8  and  C_9
REMARK    9  A    between atoms: C_9  and  C_11
REMARK   10  A    between atoms: C_12  and  C_13
REMARK   11  A    between atoms: C_16  and  O_17
REMARK   12  A    between atoms: O_17  and  C_18
REMARK                            x       y       z     vdW  Elec       q    Type
REMARK                         _______ _______ _______ _____ _____    ______ ____
ROOT
ATOM      1  C   UNL     1      -7.322   8.730   5.235  0.00  0.00    +0.000 C 
ATOM      2  O   UNL     1      -7.868   9.080   6.248  0.00  0.00    +0.000 OA
ENDROOT
BRANCH   1   3
ATOM      3  C   UNL     1      -5.847   8.651   5.084  0.00  0.00    +0.000 C 
ATOM      4  C   UNL     1      -5.135   9.812   5.048  0.00  0.00    +0.000 C 
BRANCH   4   5
ATOM      5  C   UNL     1      -3.663   9.862   4.945  0.00  0.00    +0.000 A 
ATOM      6  C   UNL     1      -2.920   9.076   5.808  0.00  0.00    +0.000 A 
ATOM      7  C   UNL     1      -1.540   9.069   5.747  0.00  0.00    +0.000 A 
ATOM      8  C   UNL     1      -0.881   9.845   4.828  0.00  0.00    +0.000 A 
ATOM      9  C   UNL     1      -1.616  10.627   3.964  0.00  0.00    +0.000 A 
ATOM     10  C   UNL     1      -3.003  10.635   4.027  0.00  0.00    +0.000 A 
BRANCH   8  11
ATOM     11  O   UNL     1       0.471   9.799   4.806  0.00  0.00    +0.000 OA
ATOM     12  C   UNL     1       1.141   9.132   3.745  0.00  0.00    +0.000 C 
ENDBRANCH   8  11
ENDBRANCH   4   5
ENDBRANCH   1   3
BRANCH   1  13
ATOM     13  O   UNL     1      -8.038   8.358   4.153  0.00  0.00    +0.000 OA
BRANCH  13  14
ATOM     14  C   UNL     1      -8.668   7.089   4.139  0.00  0.00    +0.000 C 
BRANCH  14  15
ATOM     15  C   UNL     1     -10.142   7.284   3.791  0.00  0.00    +0.000 C 
ATOM     16  C   UNL     1     -11.105   6.864   4.888  0.00  0.00    +0.000 C 
ENDBRANCH  14  15
BRANCH  14  17
ATOM     17  C   UNL     1      -8.011   6.205   3.107  0.00  0.00    +0.000 C 
BRANCH  17  18
ATOM     18  C   UNL     1      -8.001   4.753   3.469  0.00  0.00    +0.000 C 
BRANCH  18  20
ATOM     19  C   UNL     1      -6.989   3.138   1.857  0.00  0.00    +0.000 C 
ATOM     20  C   UNL     1      -8.256   3.873   2.281  0.00  0.00    +0.000 C 
ENDBRANCH  18  20
ENDBRANCH  17  18
ENDBRANCH  14  17
ENDBRANCH  13  14
ENDBRANCH   1  13
TORSDOF 9
ENDMDL
MODEL 9
REMARK VINA RESULT:      -4.0      1.797      3.197
REMARK  Name = s2_esm2_control_ligand
REMARK  12 active torsions:
REMARK  status: ('A' for Active; 'I' for Inactive)
REMARK    1  A    between atoms: C_1  and  C_2
REMARK    2  A    between atoms: C_2  and  C_3
REMARK    3  A    between atoms: C_3  and  C_4
REMARK    4  A    between atoms: C_4  and  C_5
REMARK    5  A    between atoms: C_5  and  C_6
REMARK    6  A    between atoms: C_5  and  O_8
REMARK    7  A    between atoms: C_6  and  C_7
REMARK    8  A    between atoms: O_8  and  C_9
REMARK    9  A    between atoms: C_9  and  C_11
REMARK   10  A    between atoms: C_12  and  C_13
REMARK   11  A    between atoms: C_16  and  O_17
REMARK   12  A    between atoms: O_17  and  C_18
REMARK                            x       y       z     vdW  Elec       q    Type
REMARK                         _______ _______ _______ _____ _____    ______ ____
ROOT
ATOM      1  C   UNL     1      -7.614   8.435   4.886  0.00  0.00    +0.000 C 
ATOM      2  O   UNL     1      -8.717   8.641   5.316  0.00  0.00    +0.000 OA
ENDROOT
BRANCH   1   3
ATOM      3  C   UNL     1      -6.382   9.015   5.479  0.00  0.00    +0.000 C 
ATOM      4  C   UNL     1      -5.263   9.094   4.704  0.00  0.00    +0.000 C 
BRANCH   4   5
ATOM      5  C   UNL     1      -3.993   9.688   5.165  0.00  0.00    +0.000 A 
ATOM      6  C   UNL     1      -3.005   8.839   5.632  0.00  0.00    +0.000 A 
ATOM      7  C   UNL     1      -1.790   9.337   6.061  0.00  0.00    +0.000 A 
ATOM      8  C   UNL     1      -1.542  10.685   6.032  0.00  0.00    +0.000 A 
ATOM      9  C   UNL     1      -2.521  11.535   5.565  0.00  0.00    +0.000 A 
ATOM     10  C   UNL     1      -3.743  11.034   5.136  0.00  0.00    +0.000 A 
BRANCH   8  11
ATOM     11  O   UNL     1      -0.334  11.121   6.459  0.00  0.00    +0.000 OA
ATOM     12  C   UNL     1       0.283  10.511   7.585  0.00  0.00    +0.000 C 
ENDBRANCH   8  11
ENDBRANCH   4   5
ENDBRANCH   1   3
BRANCH   1  13
ATOM     13  O   UNL     1      -7.422   7.625   3.825  0.00  0.00    +0.000 OA
BRANCH  13  14
ATOM     14  C   UNL     1      -8.481   6.794   3.383  0.00  0.00    +0.000 C 
BRANCH  14  15
ATOM     15  C   UNL     1      -8.737   7.079   1.905  0.00  0.00    +0.000 C 
ATOM     16  C   UNL     1      -7.731   8.023   1.268  0.00  0.00    +0.000 C 
ENDBRANCH  14  15
BRANCH  14  17
ATOM     17  C   UNL     1      -8.101   5.344   3.567  0.00  0.00    +0.000 C 
BRANCH  17  18
ATOM     18  C   UNL     1      -8.375   4.488   2.370  0.00  0.00    +0.000 C 
BRANCH  18  20
ATOM     19  C   UNL     1      -6.741   3.611   0.700  0.00  0.00    +0.000 C 
ATOM     20  C   UNL     1      -7.278   3.496   2.123  0.00  0.00    +0.000 C 
ENDBRANCH  18  20
ENDBRANCH  17  18
ENDBRANCH  14  17
ENDBRANCH  13  14
ENDBRANCH   1  13
TORSDOF 9
ENDMDL
