REMARK  Name = shuffle_control_ligand
REMARK  12 active torsions:
REMARK  status: ('A' for Active; 'I' for Inactive)
REMARK    1  A    between atoms: C_1  and  C_2
REMARK    2  A    between atoms: C_2  and  C_3
REMARK    3  A    between atoms: C_3  and  C_4
REMARK    4  A    between atoms: C_4  and  C_5
REMARK    5  A    between atoms: C_5  and  C_6
REMARK    6  A    between atoms: C_5  and  O_8
REMARK    7  A    between atoms: C_6  and  C_7
REMARK    8  A    between atoms: O_8  and  C_9
REMARK    9  A    between atoms: C_9  and  C_11
REMARK   10  A    between atoms: C_12  and  C_13
REMARK   11  A    between atoms: C_16  and  O_17
REMARK   12  A    between atoms: O_17  and  C_18
REMARK                            x       y       z     vdW  Elec       q    Type
REMARK                         _______ _______ _______ _____ _____    ______ ____
ROOT
ATOM      1  C   UNL     1      -2.445  -1.740   4.484  0.00  0.00    +0.000 C 
ATOM      2  O   UNL     1      -2.460  -0.700   3.882  0.00  0.00    +0.000 OA
ENDROOT
BRANCH   1   3
ATOM      3  C   UNL     1      -1.304  -2.219   5.300  0.00  0.00    +0.000 C 
ATOM      4  C   UNL     1      -0.178  -1.504   5.387  0.00  0.00    +0.000 C 
BRANCH   4   5
ATOM      5  C   UNL     1       1.014  -1.928   6.158  0.00  0.00    +0.000 A 
ATOM      6  C   UNL     1       0.991  -2.990   7.024  0.00  0.00    +0.000 A 
ATOM      7  C   UNL     1       2.135  -3.356   7.727  0.00  0.00    +0.000 A 
ATOM      8  C   UNL     1       3.302  -2.657   7.566  0.00  0.00    +0.000 A 
ATOM      9  C   UNL     1       3.330  -1.590   6.702  0.00  0.00    +0.000 A 
ATOM     10  C   UNL     1       2.188  -1.222   6.000  0.00  0.00    +0.000 A 
BRANCH   8  11
ATOM     11  O   UNL     1       4.458  -2.969   8.221  0.00  0.00    +0.000 OA
ATOM     12  C   UNL     1       4.485  -4.049   9.134  0.00  0.00    +0.000 C 
ENDBRANCH   8  11
ENDBRANCH   4   5
ENDBRANCH   1   3
BRANCH   1  13
ATOM     13  O   UNL     1      -3.487  -2.578   4.466  0.00  0.00    +0.000 OA
BRANCH  13  14
ATOM     14  C   UNL     1      -4.662  -2.241   3.756  0.00  0.00    +0.000 C 
BRANCH  14  15
ATOM     15  C   UNL     1      -5.007  -3.346   2.769  0.00  0.00    +0.000 C 
ATOM     16  C   UNL     1      -3.839  -3.960   2.075  0.00  0.00    +0.000 C 
ENDBRANCH  14  15
BRANCH  14  17
ATOM     17  C   UNL     1      -5.795  -2.093   4.745  0.00  0.00    +0.000 C 
BRANCH  17  18
ATOM     18  C   UNL     1      -5.455  -1.253   5.934  0.00  0.00    +0.000 C 
BRANCH  18  20
ATOM     19  C   UNL     1      -6.278  -0.256   8.068  0.00  0.00    +0.000 C 
ATOM     20  C   UNL     1      -6.638  -1.051   6.844  0.00  0.00    +0.000 C 
ENDBRANCH  18  20
ENDBRANCH  17  18
ENDBRANCH  14  17
ENDBRANCH  13  14
ENDBRANCH   1  13
TORSDOF 9
