MODEL 1
REMARK VINA RESULT:      -3.8      0.000      0.000
REMARK  Name = shuffle_control_ligand
REMARK  12 active torsions:
REMARK  status: ('A' for Active; 'I' for Inactive)
REMARK    1  A    between atoms: C_1  and  C_2
REMARK    2  A    between atoms: C_2  and  C_3
REMARK    3  A    between atoms: C_3  and  C_4
REMARK    4  A    between atoms: C_4  and  C_5
REMARK    5  A    between atoms: C_5  and  C_6
REMARK    6  A    between atoms: C_5  and  O_8
REMARK    7  A    between atoms: C_6  and  C_7
REMARK    8  A    between atoms: O_8  and  C_9
REMARK    9  A    between atoms: C_9  and  C_11
REMARK   10  A    between atoms: C_12  and  C_13
REMARK   11  A    between atoms: C_16  and  O_17
REMARK   12  A    between atoms: O_17  and  C_18
REMARK                            x       y       z     vdW  Elec       q    Type
REMARK                         _______ _______ _______ _____ _____    ______ ____
ROOT
ATOM      1  C   UNL     1      -6.706  -3.033  -3.818  0.00  0.00    +0.000 C 
ATOM      2  O   UNL     1      -5.934  -2.235  -4.278  0.00  0.00    +0.000 OA
ENDROOT
BRANCH   1   3
ATOM      3  C   UNL     1      -6.323  -4.371  -3.307  0.00  0.00    +0.000 C 
ATOM      4  C   UNL     1      -5.401  -4.498  -2.347  0.00  0.00    +0.000 C 
BRANCH   4   5
ATOM      5  C   UNL     1      -4.945  -5.799  -1.806  0.00  0.00    +0.000 A 
ATOM      6  C   UNL     1      -5.442  -6.997  -2.249  0.00  0.00    +0.000 A 
ATOM      7  C   UNL     1      -4.983  -8.197  -1.714  0.00  0.00    +0.000 A 
ATOM      8  C   UNL     1      -4.028  -8.199  -0.732  0.00  0.00    +0.000 A 
ATOM      9  C   UNL     1      -3.529  -7.002  -0.281  0.00  0.00    +0.000 A 
ATOM     10  C   UNL     1      -3.987  -5.802  -0.813  0.00  0.00    +0.000 A 
BRANCH   8  11
ATOM     11  O   UNL     1      -3.533  -9.340  -0.171  0.00  0.00    +0.000 OA
ATOM     12  C   UNL     1      -2.241  -9.344   0.405  0.00  0.00    +0.000 C 
ENDBRANCH   8  11
ENDBRANCH   4   5
ENDBRANCH   1   3
BRANCH   1  13
ATOM     13  O   UNL     1      -8.015  -2.774  -3.727  0.00  0.00    +0.000 OA
BRANCH  13  14
ATOM     14  C   UNL     1      -8.465  -1.567  -3.144  0.00  0.00    +0.000 C 
BRANCH  14  15
ATOM     15  C   UNL     1      -9.398  -0.844  -4.103  0.00  0.00    +0.000 C 
ATOM     16  C   UNL     1      -8.719  -0.065  -5.178  0.00  0.00    +0.000 C 
ENDBRANCH  14  15
BRANCH  14  17
ATOM     17  C   UNL     1      -9.220  -1.898  -1.877  0.00  0.00    +0.000 C 
BRANCH  17  18
ATOM     18  C   UNL     1      -8.432  -1.675  -0.627  0.00  0.00    +0.000 C 
BRANCH  18  20
ATOM     19  C   UNL     1      -8.745  -4.139  -0.391  0.00  0.00    +0.000 C 
ATOM     20  C   UNL     1      -7.871  -2.958  -0.072  0.00  0.00    +0.000 C 
ENDBRANCH  18  20
ENDBRANCH  17  18
ENDBRANCH  14  17
ENDBRANCH  13  14
ENDBRANCH   1  13
TORSDOF 9
ENDMDL
MODEL 2
REMARK VINA RESULT:      -3.8     11.758     14.684
REMARK  Name = shuffle_control_ligand
REMARK  12 active torsions:
REMARK  status: ('A' for Active; 'I' for Inactive)
REMARK    1  A    between atoms: C_1  and  C_2
REMARK    2  A    between atoms: C_2  and  C_3
REMARK    3  A    between atoms: C_3  and  C_4
REMARK    4  A    between atoms: C_4  and  C_5
REMARK    5  A    between atoms: C_5  and  C_6
REMARK    6  A    between atoms: C_5  and  O_8
REMARK    7  A    between atoms: C_6  and  C_7
REMARK    8  A    between atoms: O_8  and  C_9
REMARK    9  A    between atoms: C_9  and  C_11
REMARK   10  A    between atoms: C_12  and  C_13
REMARK   11  A    between atoms: C_16  and  O_17
REMARK   12  A    between atoms: O_17  and  C_18
REMARK                            x       y       z     vdW  Elec       q    Type
REMARK                         _______ _______ _______ _____ _____    ______ ____
ROOT
ATOM      1  C   UNL     1       1.065  -4.150   6.130  0.00  0.00    +0.000 C 
ATOM      2  O   UNL     1       0.047  -4.151   5.491  0.00  0.00    +0.000 OA
ENDROOT
BRANCH   1   3
ATOM      3  C   UNL     1       1.144  -3.835   7.577  0.00  0.00    +0.000 C 
ATOM      4  C   UNL     1       0.712  -2.660   8.045  0.00  0.00    +0.000 C 
BRANCH   4   5
ATOM      5  C   UNL     1       0.783  -2.260   9.470  0.00  0.00    +0.000 A 
ATOM      6  C   UNL     1       1.973  -2.055  10.118  0.00  0.00    +0.000 A 
ATOM      7  C   UNL     1       1.994  -1.678  11.458  0.00  0.00    +0.000 A 
ATOM      8  C   UNL     1       0.824  -1.509  12.150  0.00  0.00    +0.000 A 
ATOM      9  C   UNL     1      -0.371  -1.717  11.506  0.00  0.00    +0.000 A 
ATOM     10  C   UNL     1      -0.394  -2.095  10.169  0.00  0.00    +0.000 A 
BRANCH   8  11
ATOM     11  O   UNL     1       0.777  -1.135  13.462  0.00  0.00    +0.000 OA
ATOM     12  C   UNL     1       1.020  -2.088  14.479  0.00  0.00    +0.000 C 
ENDBRANCH   8  11
ENDBRANCH   4   5
ENDBRANCH   1   3
BRANCH   1  13
ATOM     13  O   UNL     1       2.246  -4.440   5.574  0.00  0.00    +0.000 OA
BRANCH  13  14
ATOM     14  C   UNL     1       3.403  -4.561   6.377  0.00  0.00    +0.000 C 
BRANCH  14  15
ATOM     15  C   UNL     1       4.056  -5.915   6.145  0.00  0.00    +0.000 C 
ATOM     16  C   UNL     1       4.111  -6.353   4.721  0.00  0.00    +0.000 C 
ENDBRANCH  14  15
BRANCH  14  17
ATOM     17  C   UNL     1       4.375  -3.472   5.986  0.00  0.00    +0.000 C 
BRANCH  17  18
ATOM     18  C   UNL     1       4.433  -2.336   6.957  0.00  0.00    +0.000 C 
BRANCH  18  20
ATOM     19  C   UNL     1       3.576  -0.057   7.502  0.00  0.00    +0.000 C 
ATOM     20  C   UNL     1       3.727  -1.110   6.440  0.00  0.00    +0.000 C 
ENDBRANCH  18  20
ENDBRANCH  17  18
ENDBRANCH  14  17
ENDBRANCH  13  14
ENDBRANCH   1  13
TORSDOF 9
ENDMDL
MODEL 3
REMARK VINA RESULT:      -3.7      2.145      3.027
REMARK  Name = shuffle_control_ligand
REMARK  12 active torsions:
REMARK  status: ('A' for Active; 'I' for Inactive)
REMARK    1  A    between atoms: C_1  and  C_2
REMARK    2  A    between atoms: C_2  and  C_3
REMARK    3  A    between atoms: C_3  and  C_4
REMARK    4  A    between atoms: C_4  and  C_5
REMARK    5  A    between atoms: C_5  and  C_6
REMARK    6  A    between atoms: C_5  and  O_8
REMARK    7  A    between atoms: C_6  and  C_7
REMARK    8  A    between atoms: O_8  and  C_9
REMARK    9  A    between atoms: C_9  and  C_11
REMARK   10  A    between atoms: C_12  and  C_13
REMARK   11  A    between atoms: C_16  and  O_17
REMARK   12  A    between atoms: O_17  and  C_18
REMARK                            x       y       z     vdW  Elec       q    Type
REMARK                         _______ _______ _______ _____ _____    ______ ____
ROOT
ATOM      1  C   UNL     1      -8.003  -2.948  -1.301  0.00  0.00    +0.000 C 
ATOM      2  O   UNL     1      -8.260  -2.350  -2.312  0.00  0.00    +0.000 OA
ENDROOT
BRANCH   1   3
ATOM      3  C   UNL     1      -6.770  -3.743  -1.088  0.00  0.00    +0.000 C 
ATOM      4  C   UNL     1      -6.828  -5.071  -0.957  0.00  0.00    +0.000 C 
BRANCH   4   5
ATOM      5  C   UNL     1      -5.646  -5.931  -0.714  0.00  0.00    +0.000 A 
ATOM      6  C   UNL     1      -5.724  -7.299  -0.689  0.00  0.00    +0.000 A 
ATOM      7  C   UNL     1      -4.587  -8.069  -0.460  0.00  0.00    +0.000 A 
ATOM      8  C   UNL     1      -3.373  -7.470  -0.253  0.00  0.00    +0.000 A 
ATOM      9  C   UNL     1      -3.290  -6.100  -0.274  0.00  0.00    +0.000 A 
ATOM     10  C   UNL     1      -4.424  -5.329  -0.501  0.00  0.00    +0.000 A 
BRANCH   8  11
ATOM     11  O   UNL     1      -2.222  -8.169  -0.029  0.00  0.00    +0.000 OA
ATOM     12  C   UNL     1      -2.273  -9.564   0.196  0.00  0.00    +0.000 C 
ENDBRANCH   8  11
ENDBRANCH   4   5
ENDBRANCH   1   3
BRANCH   1  13
ATOM     13  O   UNL     1      -8.834  -2.946  -0.253  0.00  0.00    +0.000 OA
BRANCH  13  14
ATOM     14  C   UNL     1      -8.908  -1.819   0.598  0.00  0.00    +0.000 C 
BRANCH  14  15
ATOM     15  C   UNL     1     -10.363  -1.479   0.882  0.00  0.00    +0.000 C 
ATOM     16  C   UNL     1     -11.360  -2.247   0.082  0.00  0.00    +0.000 C 
ENDBRANCH  14  15
BRANCH  14  17
ATOM     17  C   UNL     1      -8.217  -2.154   1.900  0.00  0.00    +0.000 C 
BRANCH  17  18
ATOM     18  C   UNL     1      -8.408  -3.570   2.340  0.00  0.00    +0.000 C 
BRANCH  18  20
ATOM     19  C   UNL     1      -7.244  -5.749   2.690  0.00  0.00    +0.000 C 
ATOM     20  C   UNL     1      -7.099  -4.253   2.637  0.00  0.00    +0.000 C 
ENDBRANCH  18  20
ENDBRANCH  17  18
ENDBRANCH  14  17
ENDBRANCH  13  14
ENDBRANCH   1  13
TORSDOF 9
ENDMDL
MODEL 4
REMARK VINA RESULT:      -3.7     11.709     13.459
REMARK  Name = shuffle_control_ligand
REMARK  12 active torsions:
REMARK  status: ('A' for Active; 'I' for Inactive)
REMARK    1  A    between atoms: C_1  and  C_2
REMARK    2  A    between atoms: C_2  and  C_3
REMARK    3  A    between atoms: C_3  and  C_4
REMARK    4  A    between atoms: C_4  and  C_5
REMARK    5  A    between atoms: C_5  and  C_6
REMARK    6  A    between atoms: C_5  and  O_8
REMARK    7  A    between atoms: C_6  and  C_7
REMARK    8  A    between atoms: O_8  and  C_9
REMARK    9  A    between atoms: C_9  and  C_11
REMARK   10  A    between atoms: C_12  and  C_13
REMARK   11  A    between atoms: C_16  and  O_17
REMARK   12  A    between atoms: O_17  and  C_18
REMARK                            x       y       z     vdW  Elec       q    Type
REMARK                         _______ _______ _______ _____ _____    ______ ____
ROOT
ATOM      1  C   UNL     1       5.069  -2.890   6.555  0.00  0.00    +0.000 C 
ATOM      2  O   UNL     1       6.102  -2.468   7.002  0.00  0.00    +0.000 OA
ENDROOT
BRANCH   1   3
ATOM      3  C   UNL     1       4.929  -4.185   5.848  0.00  0.00    +0.000 C 
ATOM      4  C   UNL     1       4.776  -5.324   6.532  0.00  0.00    +0.000 C 
BRANCH   4   5
ATOM      5  C   UNL     1       4.658  -6.659   5.900  0.00  0.00    +0.000 A 
ATOM      6  C   UNL     1       4.286  -6.823   4.591  0.00  0.00    +0.000 A 
ATOM      7  C   UNL     1       4.190  -8.096   4.037  0.00  0.00    +0.000 A 
ATOM      8  C   UNL     1       4.463  -9.205   4.793  0.00  0.00    +0.000 A 
ATOM      9  C   UNL     1       4.833  -9.046   6.106  0.00  0.00    +0.000 A 
ATOM     10  C   UNL     1       4.928  -7.776   6.662  0.00  0.00    +0.000 A 
BRANCH   8  11
ATOM     11  O   UNL     1       4.393 -10.479   4.307  0.00  0.00    +0.000 OA
ATOM     12  C   UNL     1       3.154 -11.161   4.285  0.00  0.00    +0.000 C 
ENDBRANCH   8  11
ENDBRANCH   4   5
ENDBRANCH   1   3
BRANCH   1  13
ATOM     13  O   UNL     1       3.926  -2.204   6.659  0.00  0.00    +0.000 OA
BRANCH  13  14
ATOM     14  C   UNL     1       3.292  -2.059   7.914  0.00  0.00    +0.000 C 
BRANCH  14  15
ATOM     15  C   UNL     1       3.231  -0.589   8.299  0.00  0.00    +0.000 C 
ATOM     16  C   UNL     1       3.600   0.364   7.212  0.00  0.00    +0.000 C 
ENDBRANCH  14  15
BRANCH  14  17
ATOM     17  C   UNL     1       1.884  -2.599   7.806  0.00  0.00    +0.000 C 
BRANCH  17  18
ATOM     18  C   UNL     1       1.749  -4.027   8.226  0.00  0.00    +0.000 C 
BRANCH  18  20
ATOM     19  C   UNL     1       1.090  -4.139   5.822  0.00  0.00    +0.000 C 
ATOM     20  C   UNL     1       1.331  -4.918   7.085  0.00  0.00    +0.000 C 
ENDBRANCH  18  20
ENDBRANCH  17  18
ENDBRANCH  14  17
ENDBRANCH  13  14
ENDBRANCH   1  13
TORSDOF 9
ENDMDL
MODEL 5
REMARK VINA RESULT:      -3.7     11.681     14.461
REMARK  Name = shuffle_control_ligand
REMARK  12 active torsions:
REMARK  status: ('A' for Active; 'I' for Inactive)
REMARK    1  A    between atoms: C_1  and  C_2
REMARK    2  A    between atoms: C_2  and  C_3
REMARK    3  A    between atoms: C_3  and  C_4
REMARK    4  A    between atoms: C_4  and  C_5
REMARK    5  A    between atoms: C_5  and  C_6
REMARK    6  A    between atoms: C_5  and  O_8
REMARK    7  A    between atoms: C_6  and  C_7
REMARK    8  A    between atoms: O_8  and  C_9
REMARK    9  A    between atoms: C_9  and  C_11
REMARK   10  A    between atoms: C_12  and  C_13
REMARK   11  A    between atoms: C_16  and  O_17
REMARK   12  A    between atoms: O_17  and  C_18
REMARK                            x       y       z     vdW  Elec       q    Type
REMARK                         _______ _______ _______ _____ _____    ______ ____
ROOT
ATOM      1  C   UNL     1       0.881  -3.883   6.578  0.00  0.00    +0.000 C 
ATOM      2  O   UNL     1       0.356  -4.391   5.624  0.00  0.00    +0.000 OA
ENDROOT
BRANCH   1   3
ATOM      3  C   UNL     1       0.184  -3.008   7.551  0.00  0.00    +0.000 C 
ATOM      4  C   UNL     1       0.412  -3.126   8.863  0.00  0.00    +0.000 C 
BRANCH   4   5
ATOM      5  C   UNL     1      -0.264  -2.310   9.897  0.00  0.00    +0.000 A 
ATOM      6  C   UNL     1       0.288  -2.078  11.130  0.00  0.00    +0.000 A 
ATOM      7  C   UNL     1      -0.381  -1.302  12.072  0.00  0.00    +0.000 A 
ATOM      8  C   UNL     1      -1.606  -0.761  11.782  0.00  0.00    +0.000 A 
ATOM      9  C   UNL     1      -2.166  -0.993  10.550  0.00  0.00    +0.000 A 
ATOM     10  C   UNL     1      -1.499  -1.769   9.608  0.00  0.00    +0.000 A 
BRANCH   8  11
ATOM     11  O   UNL     1      -2.309   0.012  12.659  0.00  0.00    +0.000 OA
ATOM     12  C   UNL     1      -3.654   0.352  12.382  0.00  0.00    +0.000 C 
ENDBRANCH   8  11
ENDBRANCH   4   5
ENDBRANCH   1   3
BRANCH   1  13
ATOM     13  O   UNL     1       2.177  -4.069   6.850  0.00  0.00    +0.000 OA
BRANCH  13  14
ATOM     14  C   UNL     1       3.154  -3.217   6.285  0.00  0.00    +0.000 C 
BRANCH  14  15
ATOM     15  C   UNL     1       3.801  -2.376   7.375  0.00  0.00    +0.000 C 
ATOM     16  C   UNL     1       3.262  -0.992   7.508  0.00  0.00    +0.000 C 
ENDBRANCH  14  15
BRANCH  14  17
ATOM     17  C   UNL     1       4.214  -4.071   5.629  0.00  0.00    +0.000 C 
BRANCH  17  18
ATOM     18  C   UNL     1       3.940  -5.539   5.700  0.00  0.00    +0.000 C 
BRANCH  18  20
ATOM     19  C   UNL     1       4.230  -7.716   4.516  0.00  0.00    +0.000 C 
ATOM     20  C   UNL     1       4.148  -6.221   4.374  0.00  0.00    +0.000 C 
ENDBRANCH  18  20
ENDBRANCH  17  18
ENDBRANCH  14  17
ENDBRANCH  13  14
ENDBRANCH   1  13
TORSDOF 9
ENDMDL
MODEL 6
REMARK VINA RESULT:      -3.7     11.606     14.456
REMARK  Name = shuffle_control_ligand
REMARK  12 active torsions:
REMARK  status: ('A' for Active; 'I' for Inactive)
REMARK    1  A    between atoms: C_1  and  C_2
REMARK    2  A    between atoms: C_2  and  C_3
REMARK    3  A    between atoms: C_3  and  C_4
REMARK    4  A    between atoms: C_4  and  C_5
REMARK    5  A    between atoms: C_5  and  C_6
REMARK    6  A    between atoms: C_5  and  O_8
REMARK    7  A    between atoms: C_6  and  C_7
REMARK    8  A    between atoms: O_8  and  C_9
REMARK    9  A    between atoms: C_9  and  C_11
REMARK   10  A    between atoms: C_12  and  C_13
REMARK   11  A    between atoms: C_16  and  O_17
REMARK   12  A    between atoms: O_17  and  C_18
REMARK                            x       y       z     vdW  Elec       q    Type
REMARK                         _______ _______ _______ _____ _____    ______ ____
ROOT
ATOM      1  C   UNL     1       0.977  -3.920   6.289  0.00  0.00    +0.000 C 
ATOM      2  O   UNL     1       0.116  -4.373   5.583  0.00  0.00    +0.000 OA
ENDROOT
BRANCH   1   3
ATOM      3  C   UNL     1       0.751  -3.398   7.658  0.00  0.00    +0.000 C 
ATOM      4  C   UNL     1      -0.391  -2.778   7.972  0.00  0.00    +0.000 C 
BRANCH   4   5
ATOM      5  C   UNL     1      -0.680  -2.206   9.308  0.00  0.00    +0.000 A 
ATOM      6  C   UNL     1       0.186  -2.325  10.363  0.00  0.00    +0.000 A 
ATOM      7  C   UNL     1      -0.125  -1.769  11.601  0.00  0.00    +0.000 A 
ATOM      8  C   UNL     1      -1.304  -1.097  11.784  0.00  0.00    +0.000 A 
ATOM      9  C   UNL     1      -2.177  -0.977  10.730  0.00  0.00    +0.000 A 
ATOM     10  C   UNL     1      -1.869  -1.532   9.494  0.00  0.00    +0.000 A 
BRANCH   8  11
ATOM     11  O   UNL     1      -1.664  -0.525  12.969  0.00  0.00    +0.000 OA
ATOM     12  C   UNL     1      -0.820  -0.645  14.098  0.00  0.00    +0.000 C 
ENDBRANCH   8  11
ENDBRANCH   4   5
ENDBRANCH   1   3
BRANCH   1  13
ATOM     13  O   UNL     1       2.250  -3.846   5.885  0.00  0.00    +0.000 OA
BRANCH  13  14
ATOM     14  C   UNL     1       3.304  -4.046   6.806  0.00  0.00    +0.000 C 
BRANCH  14  15
ATOM     15  C   UNL     1       4.009  -5.361   6.509  0.00  0.00    +0.000 C 
ATOM     16  C   UNL     1       4.154  -5.688   5.062  0.00  0.00    +0.000 C 
ENDBRANCH  14  15
BRANCH  14  17
ATOM     17  C   UNL     1       4.293  -2.913   6.658  0.00  0.00    +0.000 C 
BRANCH  17  18
ATOM     18  C   UNL     1       3.666  -1.607   6.291  0.00  0.00    +0.000 C 
BRANCH  18  20
ATOM     19  C   UNL     1       3.177  -0.819   8.608  0.00  0.00    +0.000 C 
ATOM     20  C   UNL     1       3.918  -0.544   7.329  0.00  0.00    +0.000 C 
ENDBRANCH  18  20
ENDBRANCH  17  18
ENDBRANCH  14  17
ENDBRANCH  13  14
ENDBRANCH   1  13
TORSDOF 9
ENDMDL
MODEL 7
REMARK VINA RESULT:      -3.6     11.810     14.248
REMARK  Name = shuffle_control_ligand
REMARK  12 active torsions:
REMARK  status: ('A' for Active; 'I' for Inactive)
REMARK    1  A    between atoms: C_1  and  C_2
REMARK    2  A    between atoms: C_2  and  C_3
REMARK    3  A    between atoms: C_3  and  C_4
REMARK    4  A    between atoms: C_4  and  C_5
REMARK    5  A    between atoms: C_5  and  C_6
REMARK    6  A    between atoms: C_5  and  O_8
REMARK    7  A    between atoms: C_6  and  C_7
REMARK    8  A    between atoms: O_8  and  C_9
REMARK    9  A    between atoms: C_9  and  C_11
REMARK   10  A    between atoms: C_12  and  C_13
REMARK   11  A    between atoms: C_16  and  O_17
REMARK   12  A    between atoms: O_17  and  C_18
REMARK                            x       y       z     vdW  Elec       q    Type
REMARK                         _______ _______ _______ _____ _____    ______ ____
ROOT
ATOM      1  C   UNL     1       1.189  -4.331   6.704  0.00  0.00    +0.000 C 
ATOM      2  O   UNL     1       1.065  -5.512   6.883  0.00  0.00    +0.000 OA
ENDROOT
BRANCH   1   3
ATOM      3  C   UNL     1       0.324  -3.295   7.317  0.00  0.00    +0.000 C 
ATOM      4  C   UNL     1       0.030  -3.334   8.620  0.00  0.00    +0.000 C 
BRANCH   4   5
ATOM      5  C   UNL     1      -0.849  -2.354   9.300  0.00  0.00    +0.000 A 
ATOM      6  C   UNL     1      -0.654  -1.969  10.601  0.00  0.00    +0.000 A 
ATOM      7  C   UNL     1      -1.502  -1.043  11.201  0.00  0.00    +0.000 A 
ATOM      8  C   UNL     1      -2.548  -0.503  10.499  0.00  0.00    +0.000 A 
ATOM      9  C   UNL     1      -2.750  -0.887   9.196  0.00  0.00    +0.000 A 
ATOM     10  C   UNL     1      -1.905  -1.814   8.596  0.00  0.00    +0.000 A 
BRANCH   8  11
ATOM     11  O   UNL     1      -3.411   0.413  11.028  0.00  0.00    +0.000 OA
ATOM     12  C   UNL     1      -4.795   0.129  11.089  0.00  0.00    +0.000 C 
ENDBRANCH   8  11
ENDBRANCH   4   5
ENDBRANCH   1   3
BRANCH   1  13
ATOM     13  O   UNL     1       2.145  -3.836   5.910  0.00  0.00    +0.000 OA
BRANCH  13  14
ATOM     14  C   UNL     1       3.419  -3.523   6.437  0.00  0.00    +0.000 C 
BRANCH  14  15
ATOM     15  C   UNL     1       4.502  -4.221   5.629  0.00  0.00    +0.000 C 
ATOM     16  C   UNL     1       4.173  -5.610   5.200  0.00  0.00    +0.000 C 
ENDBRANCH  14  15
BRANCH  14  17
ATOM     17  C   UNL     1       3.622  -2.028   6.345  0.00  0.00    +0.000 C 
BRANCH  17  18
ATOM     18  C   UNL     1       4.116  -1.405   7.611  0.00  0.00    +0.000 C 
BRANCH  18  20
ATOM     19  C   UNL     1       3.032  -1.625   9.847  0.00  0.00    +0.000 C 
ATOM     20  C   UNL     1       2.988  -0.956   8.502  0.00  0.00    +0.000 C 
ENDBRANCH  18  20
ENDBRANCH  17  18
ENDBRANCH  14  17
ENDBRANCH  13  14
ENDBRANCH   1  13
TORSDOF 9
ENDMDL
MODEL 8
REMARK VINA RESULT:      -3.6     12.086     15.132
REMARK  Name = shuffle_control_ligand
REMARK  12 active torsions:
REMARK  status: ('A' for Active; 'I' for Inactive)
REMARK    1  A    between atoms: C_1  and  C_2
REMARK    2  A    between atoms: C_2  and  C_3
REMARK    3  A    between atoms: C_3  and  C_4
REMARK    4  A    between atoms: C_4  and  C_5
REMARK    5  A    between atoms: C_5  and  C_6
REMARK    6  A    between atoms: C_5  and  O_8
REMARK    7  A    between atoms: C_6  and  C_7
REMARK    8  A    between atoms: O_8  and  C_9
REMARK    9  A    between atoms: C_9  and  C_11
REMARK   10  A    between atoms: C_12  and  C_13
REMARK   11  A    between atoms: C_16  and  O_17
REMARK   12  A    between atoms: O_17  and  C_18
REMARK                            x       y       z     vdW  Elec       q    Type
REMARK                         _______ _______ _______ _____ _____    ______ ____
ROOT
ATOM      1  C   UNL     1       1.895  -4.452   6.224  0.00  0.00    +0.000 C 
ATOM      2  O   UNL     1       0.717  -4.659   6.113  0.00  0.00    +0.000 OA
ENDROOT
BRANCH   1   3
ATOM      3  C   UNL     1       2.510  -3.103   6.252  0.00  0.00    +0.000 C 
ATOM      4  C   UNL     1       2.700  -2.463   7.410  0.00  0.00    +0.000 C 
BRANCH   4   5
ATOM      5  C   UNL     1       3.281  -1.104   7.518  0.00  0.00    +0.000 A 
ATOM      6  C   UNL     1       3.693  -0.390   6.423  0.00  0.00    +0.000 A 
ATOM      7  C   UNL     1       4.231   0.885   6.569  0.00  0.00    +0.000 A 
ATOM      8  C   UNL     1       4.360   1.445   7.813  0.00  0.00    +0.000 A 
ATOM      9  C   UNL     1       3.953   0.733   8.914  0.00  0.00    +0.000 A 
ATOM     10  C   UNL     1       3.416  -0.541   8.770  0.00  0.00    +0.000 A 
BRANCH   8  11
ATOM     11  O   UNL     1       4.874   2.692   8.022  0.00  0.00    +0.000 OA
ATOM     12  C   UNL     1       5.389   3.437   6.936  0.00  0.00    +0.000 C 
ENDBRANCH   8  11
ENDBRANCH   4   5
ENDBRANCH   1   3
BRANCH   1  13
ATOM     13  O   UNL     1       2.778  -5.451   6.333  0.00  0.00    +0.000 OA
BRANCH  13  14
ATOM     14  C   UNL     1       4.027  -5.374   5.677  0.00  0.00    +0.000 C 
BRANCH  14  15
ATOM     15  C   UNL     1       5.154  -5.518   6.689  0.00  0.00    +0.000 C 
ATOM     16  C   UNL     1       5.986  -4.296   6.886  0.00  0.00    +0.000 C 
ENDBRANCH  14  15
BRANCH  14  17
ATOM     17  C   UNL     1       4.116  -6.505   4.678  0.00  0.00    +0.000 C 
BRANCH  17  18
ATOM     18  C   UNL     1       4.411  -7.835   5.293  0.00  0.00    +0.000 C 
BRANCH  18  20
ATOM     19  C   UNL     1       5.048 -10.162   4.657  0.00  0.00    +0.000 C 
ATOM     20  C   UNL     1       4.196  -8.969   4.326  0.00  0.00    +0.000 C 
ENDBRANCH  18  20
ENDBRANCH  17  18
ENDBRANCH  14  17
ENDBRANCH  13  14
ENDBRANCH   1  13
TORSDOF 9
ENDMDL
MODEL 9
REMARK VINA RESULT:      -3.6     11.564     14.452
REMARK  Name = shuffle_control_ligand
REMARK  12 active torsions:
REMARK  status: ('A' for Active; 'I' for Inactive)
REMARK    1  A    between atoms: C_1  and  C_2
REMARK    2  A    between atoms: C_2  and  C_3
REMARK    3  A    between atoms: C_3  and  C_4
REMARK    4  A    between atoms: C_4  and  C_5
REMARK    5  A    between atoms: C_5  and  C_6
REMARK    6  A    between atoms: C_5  and  O_8
REMARK    7  A    between atoms: C_6  and  C_7
REMARK    8  A    between atoms: O_8  and  C_9
REMARK    9  A    between atoms: C_9  and  C_11
REMARK   10  A    between atoms: C_12  and  C_13
REMARK   11  A    between atoms: C_16  and  O_17
REMARK   12  A    between atoms: O_17  and  C_18
REMARK                            x       y       z     vdW  Elec       q    Type
REMARK                         _______ _______ _______ _____ _____    ______ ____
ROOT
ATOM      1  C   UNL     1       0.898  -3.969   6.424  0.00  0.00    +0.000 C 
ATOM      2  O   UNL     1       0.043  -4.055   5.585  0.00  0.00    +0.000 OA
ENDROOT
BRANCH   1   3
ATOM      3  C   UNL     1       0.719  -3.308   7.739  0.00  0.00    +0.000 C 
ATOM      4  C   UNL     1      -0.490  -2.905   8.142  0.00  0.00    +0.000 C 
BRANCH   4   5
ATOM      5  C   UNL     1      -0.746  -2.214   9.427  0.00  0.00    +0.000 A 
ATOM      6  C   UNL     1       0.148  -2.237  10.466  0.00  0.00    +0.000 A 
ATOM      7  C   UNL     1      -0.132  -1.571  11.656  0.00  0.00    +0.000 A 
ATOM      8  C   UNL     1      -1.307  -0.884  11.807  0.00  0.00    +0.000 A 
ATOM      9  C   UNL     1      -2.207  -0.860  10.770  0.00  0.00    +0.000 A 
ATOM     10  C   UNL     1      -1.930  -1.525   9.582  0.00  0.00    +0.000 A 
BRANCH   8  11
ATOM     11  O   UNL     1      -1.637  -0.206  12.945  0.00  0.00    +0.000 OA
ATOM     12  C   UNL     1      -0.620   0.282  13.798  0.00  0.00    +0.000 C 
ENDBRANCH   8  11
ENDBRANCH   4   5
ENDBRANCH   1   3
BRANCH   1  13
ATOM     13  O   UNL     1       2.121  -4.478   6.236  0.00  0.00    +0.000 OA
BRANCH  13  14
ATOM     14  C   UNL     1       2.575  -5.556   7.029  0.00  0.00    +0.000 C 
BRANCH  14  15
ATOM     15  C   UNL     1       1.491  -6.618   7.131  0.00  0.00    +0.000 C 
ATOM     16  C   UNL     1       1.976  -7.985   7.479  0.00  0.00    +0.000 C 
ENDBRANCH  14  15
BRANCH  14  17
ATOM     17  C   UNL     1       3.794  -6.159   6.368  0.00  0.00    +0.000 C 
BRANCH  17  18
ATOM     18  C   UNL     1       4.088  -5.597   5.014  0.00  0.00    +0.000 C 
BRANCH  18  20
ATOM     19  C   UNL     1       4.295  -8.039   4.550  0.00  0.00    +0.000 C 
ATOM     20  C   UNL     1       4.149  -6.666   3.956  0.00  0.00    +0.000 C 
ENDBRANCH  18  20
ENDBRANCH  17  18
ENDBRANCH  14  17
ENDBRANCH  13  14
ENDBRANCH   1  13
TORSDOF 9
ENDMDL
