REMARK  Name = bgox31_3_ligand
REMARK  5 active torsions:
REMARK  status: ('A' for Active; 'I' for Inactive)
REMARK    1  A    between atoms: C_1  and  O_2
REMARK    2  A    between atoms: O_2  and  C_3
REMARK    3  A    between atoms: C_6  and  C_7
REMARK    4  A    between atoms: C_7  and  C_9
REMARK    5  A    between atoms: C_15  and  O_16
REMARK                            x       y       z     vdW  Elec       q    Type
REMARK                         _______ _______ _______ _____ _____    ______ ____
ROOT
ATOM      1  C   UNL     1      -0.083  -0.100  -8.784  0.00  0.00    +0.000 A 
ATOM      2  C   UNL     1      -1.255   0.584  -8.596  0.00  0.00    +0.000 A 
ATOM      3  C   UNL     1      -1.614   1.024  -7.327  0.00  0.00    +0.000 A 
ATOM      4  C   UNL     1      -0.800   0.839  -6.243  0.00  0.00    +0.000 A 
ATOM      5  C   UNL     1       0.411   0.154  -6.454  0.00  0.00    +0.000 A 
ATOM      6  C   UNL     1       0.762  -0.316  -7.671  0.00  0.00    +0.000 A 
ENDROOT
BRANCH   1   8
ATOM      7  C   UNL     1       1.315  -1.440 -10.246  0.00  0.00    +0.000 C 
ATOM      8  O   UNL     1       0.262  -0.534 -10.077  0.00  0.00    +0.000 OA
ENDBRANCH   1   8
BRANCH   4   9
ATOM      9  C   UNL     1      -1.190   1.287  -4.865  0.00  0.00    +0.000 C 
ATOM     10  O   UNL     1      -0.960   0.560  -3.909  0.00  0.00    +0.000 OA
BRANCH   9  11
ATOM     11  C   UNL     1      -1.876   2.602  -4.607  0.00  0.00    +0.000 A 
ATOM     12  C   UNL     1      -2.908   2.656  -3.707  0.00  0.00    +0.000 A 
ATOM     13  C   UNL     1      -3.539   3.858  -3.508  0.00  0.00    +0.000 A 
ATOM     14  C   UNL     1      -3.054   4.980  -4.097  0.00  0.00    +0.000 A 
ATOM     15  C   UNL     1      -1.940   4.961  -4.967  0.00  0.00    +0.000 A 
ATOM     16  C   UNL     1      -1.389   3.718  -5.226  0.00  0.00    +0.000 A 
ENDBRANCH   9  11
ENDBRANCH   4   9
BRANCH   5  17
ATOM     17  O   UNL     1       1.171  -0.080  -5.311  0.00  0.00    +0.000 OA
ATOM     18  H   UNL     1       2.036  -0.557  -5.381  0.00  0.00    +0.000 HD
ENDBRANCH   5  17
TORSDOF 4
