MODEL 1
REMARK VINA RESULT:      -7.4      0.000      0.000
REMARK  Name = bgox31_3_ligand
REMARK  5 active torsions:
REMARK  status: ('A' for Active; 'I' for Inactive)
REMARK    1  A    between atoms: C_1  and  O_2
REMARK    2  A    between atoms: O_2  and  C_3
REMARK    3  A    between atoms: C_6  and  C_7
REMARK    4  A    between atoms: C_7  and  C_9
REMARK    5  A    between atoms: C_15  and  O_16
REMARK                            x       y       z     vdW  Elec       q    Type
REMARK                         _______ _______ _______ _____ _____    ______ ____
ROOT
ATOM      1  C   UNL     1      -0.577   0.161 -10.560  0.00  0.00    +0.000 A 
ATOM      2  C   UNL     1      -1.655   0.126  -9.715  0.00  0.00    +0.000 A 
ATOM      3  C   UNL     1      -1.476   0.262  -8.343  0.00  0.00    +0.000 A 
ATOM      4  C   UNL     1      -0.241   0.485  -7.797  0.00  0.00    +0.000 A 
ATOM      5  C   UNL     1       0.855   0.540  -8.677  0.00  0.00    +0.000 A 
ATOM      6  C   UNL     1       0.709   0.372 -10.010  0.00  0.00    +0.000 A 
ENDROOT
BRANCH   1   8
ATOM      7  C   UNL     1      -0.917   1.165 -12.742  0.00  0.00    +0.000 C 
ATOM      8  O   UNL     1      -0.781   0.023 -11.945  0.00  0.00    +0.000 OA
ENDBRANCH   1   8
BRANCH   4   9
ATOM      9  C   UNL     1      -0.034   0.607  -6.316  0.00  0.00    +0.000 C 
ATOM     10  O   UNL     1       0.884  -0.002  -5.785  0.00  0.00    +0.000 OA
BRANCH   9  11
ATOM     11  C   UNL     1      -0.927   1.446  -5.441  0.00  0.00    +0.000 A 
ATOM     12  C   UNL     1      -1.045   2.788  -5.692  0.00  0.00    +0.000 A 
ATOM     13  C   UNL     1      -1.842   3.540  -4.866  0.00  0.00    +0.000 A 
ATOM     14  C   UNL     1      -2.589   2.930  -3.912  0.00  0.00    +0.000 A 
ATOM     15  C   UNL     1      -2.545   1.535  -3.688  0.00  0.00    +0.000 A 
ATOM     16  C   UNL     1      -1.656   0.819  -4.471  0.00  0.00    +0.000 A 
ENDBRANCH   9  11
ENDBRANCH   4   9
BRANCH   5  17
ATOM     17  O   UNL     1       2.100   0.690  -8.072  0.00  0.00    +0.000 OA
ATOM     18  H   UNL     1       2.926   0.516  -8.589  0.00  0.00    +0.000 HD
ENDBRANCH   5  17
TORSDOF 4
ENDMDL
MODEL 2
REMARK VINA RESULT:      -7.1      2.212      6.217
REMARK  Name = bgox31_3_ligand
REMARK  5 active torsions:
REMARK  status: ('A' for Active; 'I' for Inactive)
REMARK    1  A    between atoms: C_1  and  O_2
REMARK    2  A    between atoms: O_2  and  C_3
REMARK    3  A    between atoms: C_6  and  C_7
REMARK    4  A    between atoms: C_7  and  C_9
REMARK    5  A    between atoms: C_15  and  O_16
REMARK                            x       y       z     vdW  Elec       q    Type
REMARK                         _______ _______ _______ _____ _____    ______ ____
ROOT
ATOM      1  C   UNL     1      -2.924   3.932  -3.996  0.00  0.00    +0.000 A 
ATOM      2  C   UNL     1      -2.041   4.205  -5.008  0.00  0.00    +0.000 A 
ATOM      3  C   UNL     1      -1.264   3.190  -5.553  0.00  0.00    +0.000 A 
ATOM      4  C   UNL     1      -1.384   1.890  -5.143  0.00  0.00    +0.000 A 
ATOM      5  C   UNL     1      -2.309   1.620  -4.118  0.00  0.00    +0.000 A 
ATOM      6  C   UNL     1      -3.047   2.597  -3.547  0.00  0.00    +0.000 A 
ENDROOT
BRANCH   1   8
ATOM      7  C   UNL     1      -4.397   4.774  -2.262  0.00  0.00    +0.000 C 
ATOM      8  O   UNL     1      -3.703   4.973  -3.460  0.00  0.00    +0.000 OA
ENDBRANCH   1   8
BRANCH   4   9
ATOM      9  C   UNL     1      -0.531   0.792  -5.706  0.00  0.00    +0.000 C 
ATOM     10  O   UNL     1       0.118   0.086  -4.948  0.00  0.00    +0.000 OA
BRANCH   9  11
ATOM     11  C   UNL     1      -0.425   0.530  -7.185  0.00  0.00    +0.000 A 
ATOM     12  C   UNL     1      -1.567   0.468  -7.940  0.00  0.00    +0.000 A 
ATOM     13  C   UNL     1      -1.450   0.198  -9.280  0.00  0.00    +0.000 A 
ATOM     14  C   UNL     1      -0.221   0.130  -9.850  0.00  0.00    +0.000 A 
ATOM     15  C   UNL     1       0.971   0.271  -9.104  0.00  0.00    +0.000 A 
ATOM     16  C   UNL     1       0.821   0.441  -7.739  0.00  0.00    +0.000 A 
ENDBRANCH   9  11
ENDBRANCH   4   9
BRANCH   5  17
ATOM     17  O   UNL     1      -2.342   0.299  -3.678  0.00  0.00    +0.000 OA
ATOM     18  H   UNL     1      -2.500   0.100  -2.720  0.00  0.00    +0.000 HD
ENDBRANCH   5  17
TORSDOF 4
ENDMDL
MODEL 3
REMARK VINA RESULT:      -7.0      1.749      2.924
REMARK  Name = bgox31_3_ligand
REMARK  5 active torsions:
REMARK  status: ('A' for Active; 'I' for Inactive)
REMARK    1  A    between atoms: C_1  and  O_2
REMARK    2  A    between atoms: O_2  and  C_3
REMARK    3  A    between atoms: C_6  and  C_7
REMARK    4  A    between atoms: C_7  and  C_9
REMARK    5  A    between atoms: C_15  and  O_16
REMARK                            x       y       z     vdW  Elec       q    Type
REMARK                         _______ _______ _______ _____ _____    ______ ____
ROOT
ATOM      1  C   UNL     1       0.036   0.044  -8.349  0.00  0.00    +0.000 A 
ATOM      2  C   UNL     1      -1.279   0.426  -8.394  0.00  0.00    +0.000 A 
ATOM      3  C   UNL     1      -1.922   0.861  -7.242  0.00  0.00    +0.000 A 
ATOM      4  C   UNL     1      -1.265   0.972  -6.047  0.00  0.00    +0.000 A 
ATOM      5  C   UNL     1       0.091   0.597  -6.019  0.00  0.00    +0.000 A 
ATOM      6  C   UNL     1       0.726   0.135  -7.118  0.00  0.00    +0.000 A 
ENDROOT
BRANCH   1   8
ATOM      7  C   UNL     1       1.938  -0.977  -9.458  0.00  0.00    +0.000 C 
ATOM      8  O   UNL     1       0.669  -0.391  -9.528  0.00  0.00    +0.000 OA
ENDBRANCH   1   8
BRANCH   4   9
ATOM      9  C   UNL     1      -1.957   1.416  -4.792  0.00  0.00    +0.000 C 
ATOM     10  O   UNL     1      -2.441   0.578  -4.044  0.00  0.00    +0.000 OA
BRANCH   9  11
ATOM     11  C   UNL     1      -2.097   2.867  -4.417  0.00  0.00    +0.000 A 
ATOM     12  C   UNL     1      -2.952   3.219  -3.405  0.00  0.00    +0.000 A 
ATOM     13  C   UNL     1      -3.087   4.550  -3.098  0.00  0.00    +0.000 A 
ATOM     14  C   UNL     1      -2.289   5.466  -3.702  0.00  0.00    +0.000 A 
ATOM     15  C   UNL     1      -1.343   5.115  -4.692  0.00  0.00    +0.000 A 
ATOM     16  C   UNL     1      -1.302   3.779  -5.051  0.00  0.00    +0.000 A 
ENDBRANCH   9  11
ENDBRANCH   4   9
BRANCH   5  17
ATOM     17  O   UNL     1       0.700   0.651  -4.767  0.00  0.00    +0.000 OA
ATOM     18  H   UNL     1       1.441   0.032  -4.550  0.00  0.00    +0.000 HD
ENDBRANCH   5  17
TORSDOF 4
ENDMDL
MODEL 4
REMARK VINA RESULT:      -6.8      2.307      3.483
REMARK  Name = bgox31_3_ligand
REMARK  5 active torsions:
REMARK  status: ('A' for Active; 'I' for Inactive)
REMARK    1  A    between atoms: C_1  and  O_2
REMARK    2  A    between atoms: O_2  and  C_3
REMARK    3  A    between atoms: C_6  and  C_7
REMARK    4  A    between atoms: C_7  and  C_9
REMARK    5  A    between atoms: C_15  and  O_16
REMARK                            x       y       z     vdW  Elec       q    Type
REMARK                         _______ _______ _______ _____ _____    ______ ____
ROOT
ATOM      1  C   UNL     1       1.212  -0.168  -7.046  0.00  0.00    +0.000 A 
ATOM      2  C   UNL     1       1.338  -0.116  -5.683  0.00  0.00    +0.000 A 
ATOM      3  C   UNL     1       0.307   0.395  -4.903  0.00  0.00    +0.000 A 
ATOM      4  C   UNL     1      -0.874   0.812  -5.453  0.00  0.00    +0.000 A 
ATOM      5  C   UNL     1      -0.999   0.733  -6.852  0.00  0.00    +0.000 A 
ATOM      6  C   UNL     1       0.005   0.275  -7.633  0.00  0.00    +0.000 A 
ENDROOT
BRANCH   1   8
ATOM      7  C   UNL     1       2.032  -1.079  -9.140  0.00  0.00    +0.000 C 
ATOM      8  O   UNL     1       2.267  -0.692  -7.816  0.00  0.00    +0.000 OA
ENDBRANCH   1   8
BRANCH   4   9
ATOM      9  C   UNL     1      -1.983   1.389  -4.622  0.00  0.00    +0.000 C 
ATOM     10  O   UNL     1      -2.882   0.659  -4.230  0.00  0.00    +0.000 OA
BRANCH   9  11
ATOM     11  C   UNL     1      -2.045   2.849  -4.261  0.00  0.00    +0.000 A 
ATOM     12  C   UNL     1      -1.306   3.751  -4.980  0.00  0.00    +0.000 A 
ATOM     13  C   UNL     1      -1.354   5.073  -4.616  0.00  0.00    +0.000 A 
ATOM     14  C   UNL     1      -2.219   5.476  -3.651  0.00  0.00    +0.000 A 
ATOM     15  C   UNL     1      -3.050   4.573  -2.951  0.00  0.00    +0.000 A 
ATOM     16  C   UNL     1      -2.905   3.234  -3.271  0.00  0.00    +0.000 A 
ENDBRANCH   9  11
ENDBRANCH   4   9
BRANCH   5  17
ATOM     17  O   UNL     1      -2.186   1.239  -7.375  0.00  0.00    +0.000 OA
ATOM     18  H   UNL     1      -2.858   1.646  -6.772  0.00  0.00    +0.000 HD
ENDBRANCH   5  17
TORSDOF 4
ENDMDL
MODEL 5
REMARK VINA RESULT:      -6.5      2.671      6.504
REMARK  Name = bgox31_3_ligand
REMARK  5 active torsions:
REMARK  status: ('A' for Active; 'I' for Inactive)
REMARK    1  A    between atoms: C_1  and  O_2
REMARK    2  A    between atoms: O_2  and  C_3
REMARK    3  A    between atoms: C_6  and  C_7
REMARK    4  A    between atoms: C_7  and  C_9
REMARK    5  A    between atoms: C_15  and  O_16
REMARK                            x       y       z     vdW  Elec       q    Type
REMARK                         _______ _______ _______ _____ _____    ______ ____
ROOT
ATOM      1  C   UNL     1       0.639  -0.959  -2.499  0.00  0.00    +0.000 A 
ATOM      2  C   UNL     1       1.579  -0.587  -3.423  0.00  0.00    +0.000 A 
ATOM      3  C   UNL     1       1.212   0.164  -4.534  0.00  0.00    +0.000 A 
ATOM      4  C   UNL     1      -0.073   0.596  -4.719  0.00  0.00    +0.000 A 
ATOM      5  C   UNL     1      -1.025   0.225  -3.751  0.00  0.00    +0.000 A 
ATOM      6  C   UNL     1      -0.698  -0.536  -2.684  0.00  0.00    +0.000 A 
ENDROOT
BRANCH   1   8
ATOM      7  C   UNL     1       2.131  -1.307  -0.618  0.00  0.00    +0.000 C 
ATOM      8  O   UNL     1       1.032  -1.717  -1.381  0.00  0.00    +0.000 OA
ENDBRANCH   1   8
BRANCH   4   9
ATOM      9  C   UNL     1      -0.484   1.385  -5.927  0.00  0.00    +0.000 C 
ATOM     10  O   UNL     1      -0.901   2.526  -5.787  0.00  0.00    +0.000 OA
BRANCH   9  11
ATOM     11  C   UNL     1      -0.422   0.819  -7.321  0.00  0.00    +0.000 A 
ATOM     12  C   UNL     1      -1.587   0.553  -7.991  0.00  0.00    +0.000 A 
ATOM     13  C   UNL     1      -1.509   0.010  -9.249  0.00  0.00    +0.000 A 
ATOM     14  C   UNL     1      -0.300  -0.130  -9.848  0.00  0.00    +0.000 A 
ATOM     15  C   UNL     1       0.912   0.213  -9.206  0.00  0.00    +0.000 A 
ATOM     16  C   UNL     1       0.805   0.663  -7.901  0.00  0.00    +0.000 A 
ENDBRANCH   9  11
ENDBRANCH   4   9
BRANCH   5  17
ATOM     17  O   UNL     1      -2.333   0.620  -4.019  0.00  0.00    +0.000 OA
ATOM     18  H   UNL     1      -3.078   0.269  -3.470  0.00  0.00    +0.000 HD
ENDBRANCH   5  17
TORSDOF 4
ENDMDL
MODEL 6
REMARK VINA RESULT:      -6.4      5.770      8.921
REMARK  Name = bgox31_3_ligand
REMARK  5 active torsions:
REMARK  status: ('A' for Active; 'I' for Inactive)
REMARK    1  A    between atoms: C_1  and  O_2
REMARK    2  A    between atoms: O_2  and  C_3
REMARK    3  A    between atoms: C_6  and  C_7
REMARK    4  A    between atoms: C_7  and  C_9
REMARK    5  A    between atoms: C_15  and  O_16
REMARK                            x       y       z     vdW  Elec       q    Type
REMARK                         _______ _______ _______ _____ _____    ______ ____
ROOT
ATOM      1  C   UNL     1       2.717  -1.428   1.682  0.00  0.00    +0.000 A 
ATOM      2  C   UNL     1       2.884  -0.252   1.000  0.00  0.00    +0.000 A 
ATOM      3  C   UNL     1       2.737  -0.216  -0.382  0.00  0.00    +0.000 A 
ATOM      4  C   UNL     1       2.375  -1.324  -1.098  0.00  0.00    +0.000 A 
ATOM      5  C   UNL     1       2.185  -2.521  -0.382  0.00  0.00    +0.000 A 
ATOM      6  C   UNL     1       2.360  -2.588   0.956  0.00  0.00    +0.000 A 
ENDROOT
BRANCH   1   8
ATOM      7  C   UNL     1       2.515  -2.585   3.805  0.00  0.00    +0.000 C 
ATOM      8  O   UNL     1       2.868  -1.441   3.080  0.00  0.00    +0.000 OA
ENDBRANCH   1   8
BRANCH   4   9
ATOM      9  C   UNL     1       2.239  -1.302  -2.592  0.00  0.00    +0.000 C 
ATOM     10  O   UNL     1       3.080  -1.863  -3.281  0.00  0.00    +0.000 OA
BRANCH   9  11
ATOM     11  C   UNL     1       1.107  -0.596  -3.290  0.00  0.00    +0.000 A 
ATOM     12  C   UNL     1       1.313  -0.065  -4.536  0.00  0.00    +0.000 A 
ATOM     13  C   UNL     1       0.277   0.599  -5.143  0.00  0.00    +0.000 A 
ATOM     14  C   UNL     1      -0.950   0.605  -4.565  0.00  0.00    +0.000 A 
ATOM     15  C   UNL     1      -1.205  -0.006  -3.316  0.00  0.00    +0.000 A 
ATOM     16  C   UNL     1      -0.116  -0.580  -2.683  0.00  0.00    +0.000 A 
ENDBRANCH   9  11
ENDBRANCH   4   9
BRANCH   5  17
ATOM     17  O   UNL     1       1.895  -3.640  -1.158  0.00  0.00    +0.000 OA
ATOM     18  H   UNL     1       2.616  -4.092  -1.665  0.00  0.00    +0.000 HD
ENDBRANCH   5  17
TORSDOF 4
ENDMDL
MODEL 7
REMARK VINA RESULT:      -6.2      3.654      5.517
REMARK  Name = bgox31_3_ligand
REMARK  5 active torsions:
REMARK  status: ('A' for Active; 'I' for Inactive)
REMARK    1  A    between atoms: C_1  and  O_2
REMARK    2  A    between atoms: O_2  and  C_3
REMARK    3  A    between atoms: C_6  and  C_7
REMARK    4  A    between atoms: C_7  and  C_9
REMARK    5  A    between atoms: C_15  and  O_16
REMARK                            x       y       z     vdW  Elec       q    Type
REMARK                         _______ _______ _______ _____ _____    ______ ____
ROOT
ATOM      1  C   UNL     1       1.319  -0.804  -3.300  0.00  0.00    +0.000 A 
ATOM      2  C   UNL     1       0.137  -0.714  -2.614  0.00  0.00    +0.000 A 
ATOM      3  C   UNL     1      -0.924   0.015  -3.138  0.00  0.00    +0.000 A 
ATOM      4  C   UNL     1      -0.848   0.618  -4.364  0.00  0.00    +0.000 A 
ATOM      5  C   UNL     1       0.365   0.499  -5.068  0.00  0.00    +0.000 A 
ATOM      6  C   UNL     1       1.422  -0.172  -4.561  0.00  0.00    +0.000 A 
ENDROOT
BRANCH   1   8
ATOM      7  C   UNL     1       2.290  -2.018  -1.437  0.00  0.00    +0.000 C 
ATOM      8  O   UNL     1       2.380  -1.549  -2.752  0.00  0.00    +0.000 OA
ENDBRANCH   1   8
BRANCH   4   9
ATOM      9  C   UNL     1      -1.978   1.428  -4.928  0.00  0.00    +0.000 C 
ATOM     10  O   UNL     1      -2.712   0.932  -5.771  0.00  0.00    +0.000 OA
BRANCH   9  11
ATOM     11  C   UNL     1      -2.242   2.849  -4.507  0.00  0.00    +0.000 A 
ATOM     12  C   UNL     1      -3.065   3.092  -3.438  0.00  0.00    +0.000 A 
ATOM     13  C   UNL     1      -3.315   4.395  -3.089  0.00  0.00    +0.000 A 
ATOM     14  C   UNL     1      -2.652   5.400  -3.714  0.00  0.00    +0.000 A 
ATOM     15  C   UNL     1      -1.737   5.168  -4.766  0.00  0.00    +0.000 A 
ATOM     16  C   UNL     1      -1.583   3.851  -5.161  0.00  0.00    +0.000 A 
ENDBRANCH   9  11
ENDBRANCH   4   9
BRANCH   5  17
ATOM     17  O   UNL     1       0.424   1.192  -6.274  0.00  0.00    +0.000 OA
ATOM     18  H   UNL     1      -0.396   1.599  -6.653  0.00  0.00    +0.000 HD
ENDBRANCH   5  17
TORSDOF 4
ENDMDL
MODEL 8
REMARK VINA RESULT:      -6.2      2.579      6.043
REMARK  Name = bgox31_3_ligand
REMARK  5 active torsions:
REMARK  status: ('A' for Active; 'I' for Inactive)
REMARK    1  A    between atoms: C_1  and  O_2
REMARK    2  A    between atoms: O_2  and  C_3
REMARK    3  A    between atoms: C_6  and  C_7
REMARK    4  A    between atoms: C_7  and  C_9
REMARK    5  A    between atoms: C_15  and  O_16
REMARK                            x       y       z     vdW  Elec       q    Type
REMARK                         _______ _______ _______ _____ _____    ______ ____
ROOT
ATOM      1  C   UNL     1      -1.710   1.322  -5.684  0.00  0.00    +0.000 A 
ATOM      2  C   UNL     1      -0.352   1.343  -5.505  0.00  0.00    +0.000 A 
ATOM      3  C   UNL     1       0.494   0.877  -6.505  0.00  0.00    +0.000 A 
ATOM      4  C   UNL     1       0.014   0.434  -7.707  0.00  0.00    +0.000 A 
ATOM      5  C   UNL     1      -1.382   0.437  -7.886  0.00  0.00    +0.000 A 
ATOM      6  C   UNL     1      -2.225   0.850  -6.913  0.00  0.00    +0.000 A 
ENDROOT
BRANCH   1   8
ATOM      7  C   UNL     1      -2.346   3.086  -4.144  0.00  0.00    +0.000 C 
ATOM      8  O   UNL     1      -2.548   1.801  -4.660  0.00  0.00    +0.000 OA
ENDBRANCH   1   8
BRANCH   4   9
ATOM      9  C   UNL     1       0.916  -0.095  -8.783  0.00  0.00    +0.000 C 
ATOM     10  O   UNL     1       1.272   0.646  -9.688  0.00  0.00    +0.000 OA
BRANCH   9  11
ATOM     11  C   UNL     1       1.396  -1.522  -8.805  0.00  0.00    +0.000 A 
ATOM     12  C   UNL     1       1.942  -2.065  -7.671  0.00  0.00    +0.000 A 
ATOM     13  C   UNL     1       2.400  -3.358  -7.721  0.00  0.00    +0.000 A 
ATOM     14  C   UNL     1       2.189  -4.106  -8.833  0.00  0.00    +0.000 A 
ATOM     15  C   UNL     1       1.555  -3.590  -9.987  0.00  0.00    +0.000 A 
ATOM     16  C   UNL     1       1.196  -2.254  -9.941  0.00  0.00    +0.000 A 
ENDBRANCH   9  11
ENDBRANCH   4   9
BRANCH   5  17
ATOM     17  O   UNL     1      -1.831  -0.094  -9.092  0.00  0.00    +0.000 OA
ATOM     18  H   UNL     1      -2.792  -0.297  -9.216  0.00  0.00    +0.000 HD
ENDBRANCH   5  17
TORSDOF 4
ENDMDL
MODEL 9
REMARK VINA RESULT:      -6.1      1.574      6.012
REMARK  Name = bgox31_3_ligand
REMARK  5 active torsions:
REMARK  status: ('A' for Active; 'I' for Inactive)
REMARK    1  A    between atoms: C_1  and  O_2
REMARK    2  A    between atoms: O_2  and  C_3
REMARK    3  A    between atoms: C_6  and  C_7
REMARK    4  A    between atoms: C_7  and  C_9
REMARK    5  A    between atoms: C_15  and  O_16
REMARK                            x       y       z     vdW  Elec       q    Type
REMARK                         _______ _______ _______ _____ _____    ______ ____
ROOT
ATOM      1  C   UNL     1      -0.904   1.126  -6.278  0.00  0.00    +0.000 A 
ATOM      2  C   UNL     1      -1.914   0.798  -7.145  0.00  0.00    +0.000 A 
ATOM      3  C   UNL     1      -1.619   0.306  -8.411  0.00  0.00    +0.000 A 
ATOM      4  C   UNL     1      -0.331   0.085  -8.816  0.00  0.00    +0.000 A 
ATOM      5  C   UNL     1       0.696   0.405  -7.909  0.00  0.00    +0.000 A 
ATOM      6  C   UNL     1       0.434   0.921  -6.688  0.00  0.00    +0.000 A 
ENDROOT
BRANCH   1   8
ATOM      7  C   UNL     1      -1.589   0.729  -3.985  0.00  0.00    +0.000 C 
ATOM      8  O   UNL     1      -1.225   1.620  -5.001  0.00  0.00    +0.000 OA
ENDBRANCH   1   8
BRANCH   4   9
ATOM      9  C   UNL     1      -0.002  -0.421 -10.190  0.00  0.00    +0.000 C 
ATOM     10  O   UNL     1       0.604  -1.476 -10.313  0.00  0.00    +0.000 OA
BRANCH   9  11
ATOM     11  C   UNL     1      -0.374   0.332 -11.439  0.00  0.00    +0.000 A 
ATOM     12  C   UNL     1       0.003   1.643 -11.571  0.00  0.00    +0.000 A 
ATOM     13  C   UNL     1      -0.371   2.319 -12.705  0.00  0.00    +0.000 A 
ATOM     14  C   UNL     1      -0.985   1.654 -13.716  0.00  0.00    +0.000 A 
ATOM     15  C   UNL     1      -1.313   0.282 -13.634  0.00  0.00    +0.000 A 
ATOM     16  C   UNL     1      -1.012  -0.347 -12.438  0.00  0.00    +0.000 A 
ENDBRANCH   9  11
ENDBRANCH   4   9
BRANCH   5  17
ATOM     17  O   UNL     1       1.991   0.238  -8.391  0.00  0.00    +0.000 OA
ATOM     18  H   UNL     1       2.242   0.609  -9.275  0.00  0.00    +0.000 HD
ENDBRANCH   5  17
TORSDOF 4
ENDMDL
