REMARK  Name = bg33_2_ligand
REMARK  12 active torsions:
REMARK  status: ('A' for Active; 'I' for Inactive)
REMARK    1  A    between atoms: C_1  and  C_2
REMARK    2  A    between atoms: C_2  and  C_3
REMARK    3  A    between atoms: C_3  and  C_4
REMARK    4  A    between atoms: C_4  and  C_5
REMARK    5  A    between atoms: C_5  and  C_6
REMARK    6  A    between atoms: C_5  and  O_8
REMARK    7  A    between atoms: C_6  and  C_7
REMARK    8  A    between atoms: O_8  and  C_9
REMARK    9  A    between atoms: C_9  and  C_11
REMARK   10  A    between atoms: C_12  and  C_13
REMARK   11  A    between atoms: C_16  and  O_17
REMARK   12  A    between atoms: O_17  and  C_18
REMARK                            x       y       z     vdW  Elec       q    Type
REMARK                         _______ _______ _______ _____ _____    ______ ____
ROOT
ATOM      1  C   UNL     1      -4.629   4.703   5.120  0.00  0.00    +0.000 C 
ATOM      2  O   UNL     1      -5.643   4.775   5.779  0.00  0.00    +0.000 OA
ENDROOT
BRANCH   1   3
ATOM      3  C   UNL     1      -4.509   5.524   3.870  0.00  0.00    +0.000 C 
ATOM      4  C   UNL     1      -3.338   5.718   3.182  0.00  0.00    +0.000 C 
BRANCH   4   5
ATOM      5  C   UNL     1      -3.348   6.439   1.856  0.00  0.00    +0.000 A 
ATOM      6  C   UNL     1      -4.535   6.649   1.183  0.00  0.00    +0.000 A 
ATOM      7  C   UNL     1      -4.486   7.298  -0.047  0.00  0.00    +0.000 A 
ATOM      8  C   UNL     1      -3.303   7.738  -0.625  0.00  0.00    +0.000 A 
ATOM      9  C   UNL     1      -2.138   7.492   0.060  0.00  0.00    +0.000 A 
ATOM     10  C   UNL     1      -2.150   6.849   1.305  0.00  0.00    +0.000 A 
BRANCH   8  11
ATOM     11  O   UNL     1      -3.290   8.354  -1.873  0.00  0.00    +0.000 OA
ATOM     12  C   UNL     1      -4.214   9.439  -2.030  0.00  0.00    +0.000 C 
ENDBRANCH   8  11
ENDBRANCH   4   5
ENDBRANCH   1   3
BRANCH   1  13
ATOM     13  O   UNL     1      -3.611   3.792   5.523  0.00  0.00    +0.000 OA
BRANCH  13  14
ATOM     14  C   UNL     1      -3.860   2.952   6.696  0.00  0.00    +0.000 C 
BRANCH  14  15
ATOM     15  C   UNL     1      -2.604   2.368   7.310  0.00  0.00    +0.000 C 
ATOM     16  C   UNL     1      -2.849   2.023   8.832  0.00  0.00    +0.000 C 
ENDBRANCH  14  15
BRANCH  14  17
ATOM     17  C   UNL     1      -4.790   1.823   6.357  0.00  0.00    +0.000 C 
BRANCH  17  18
ATOM     18  C   UNL     1      -4.130   0.831   5.384  0.00  0.00    +0.000 C 
BRANCH  18  20
ATOM     19  C   UNL     1      -4.208  -1.390   4.247  0.00  0.00    +0.000 C 
ATOM     20  C   UNL     1      -4.937  -0.430   5.205  0.00  0.00    +0.000 C 
ENDBRANCH  18  20
ENDBRANCH  17  18
ENDBRANCH  14  17
ENDBRANCH  13  14
ENDBRANCH   1  13
TORSDOF 9
