MODEL 1
REMARK VINA RESULT:      -3.3      0.000      0.000
REMARK  Name = bg33_2_ligand
REMARK  12 active torsions:
REMARK  status: ('A' for Active; 'I' for Inactive)
REMARK    1  A    between atoms: C_1  and  C_2
REMARK    2  A    between atoms: C_2  and  C_3
REMARK    3  A    between atoms: C_3  and  C_4
REMARK    4  A    between atoms: C_4  and  C_5
REMARK    5  A    between atoms: C_5  and  C_6
REMARK    6  A    between atoms: C_5  and  O_8
REMARK    7  A    between atoms: C_6  and  C_7
REMARK    8  A    between atoms: O_8  and  C_9
REMARK    9  A    between atoms: C_9  and  C_11
REMARK   10  A    between atoms: C_12  and  C_13
REMARK   11  A    between atoms: C_16  and  O_17
REMARK   12  A    between atoms: O_17  and  C_18
REMARK                            x       y       z     vdW  Elec       q    Type
REMARK                         _______ _______ _______ _____ _____    ______ ____
ROOT
ATOM      1  C   UNL     1      -6.973   1.570   4.684  0.00  0.00    +0.000 C 
ATOM      2  O   UNL     1      -6.583   2.492   5.366  0.00  0.00    +0.000 OA
ENDROOT
BRANCH   1   3
ATOM      3  C   UNL     1      -6.186   0.293   4.660  0.00  0.00    +0.000 C 
ATOM      4  C   UNL     1      -6.690  -0.932   5.015  0.00  0.00    +0.000 C 
BRANCH   4   5
ATOM      5  C   UNL     1      -5.862  -2.179   4.818  0.00  0.00    +0.000 A 
ATOM      6  C   UNL     1      -4.695  -2.364   5.531  0.00  0.00    +0.000 A 
ATOM      7  C   UNL     1      -3.957  -3.519   5.295  0.00  0.00    +0.000 A 
ATOM      8  C   UNL     1      -4.339  -4.488   4.377  0.00  0.00    +0.000 A 
ATOM      9  C   UNL     1      -5.494  -4.262   3.667  0.00  0.00    +0.000 A 
ATOM     10  C   UNL     1      -6.267  -3.114   3.885  0.00  0.00    +0.000 A 
BRANCH   8  11
ATOM     11  O   UNL     1      -3.558  -5.616   4.143  0.00  0.00    +0.000 OA
ATOM     12  C   UNL     1      -2.221  -5.551   4.656  0.00  0.00    +0.000 C 
ENDBRANCH   8  11
ENDBRANCH   4   5
ENDBRANCH   1   3
BRANCH   1  13
ATOM     13  O   UNL     1      -8.132   1.755   3.878  0.00  0.00    +0.000 OA
BRANCH  13  14
ATOM     14  C   UNL     1      -9.432   1.846   4.547  0.00  0.00    +0.000 C 
BRANCH  14  15
ATOM     15  C   UNL     1     -10.361   0.689   4.242  0.00  0.00    +0.000 C 
ATOM     16  C   UNL     1     -10.320  -0.369   5.414  0.00  0.00    +0.000 C 
ENDBRANCH  14  15
BRANCH  14  17
ATOM     17  C   UNL     1     -10.132   3.123   4.183  0.00  0.00    +0.000 C 
BRANCH  17  18
ATOM     18  C   UNL     1      -9.588   4.308   4.999  0.00  0.00    +0.000 C 
BRANCH  18  20
ATOM     19  C   UNL     1      -9.785   5.887   3.076  0.00  0.00    +0.000 C 
ATOM     20  C   UNL     1      -8.845   5.307   4.148  0.00  0.00    +0.000 C 
ENDBRANCH  18  20
ENDBRANCH  17  18
ENDBRANCH  14  17
ENDBRANCH  13  14
ENDBRANCH   1  13
TORSDOF 9
ENDMDL
MODEL 2
REMARK VINA RESULT:      -3.2      1.997      2.803
REMARK  Name = bg33_2_ligand
REMARK  12 active torsions:
REMARK  status: ('A' for Active; 'I' for Inactive)
REMARK    1  A    between atoms: C_1  and  C_2
REMARK    2  A    between atoms: C_2  and  C_3
REMARK    3  A    between atoms: C_3  and  C_4
REMARK    4  A    between atoms: C_4  and  C_5
REMARK    5  A    between atoms: C_5  and  C_6
REMARK    6  A    between atoms: C_5  and  O_8
REMARK    7  A    between atoms: C_6  and  C_7
REMARK    8  A    between atoms: O_8  and  C_9
REMARK    9  A    between atoms: C_9  and  C_11
REMARK   10  A    between atoms: C_12  and  C_13
REMARK   11  A    between atoms: C_16  and  O_17
REMARK   12  A    between atoms: O_17  and  C_18
REMARK                            x       y       z     vdW  Elec       q    Type
REMARK                         _______ _______ _______ _____ _____    ______ ____
ROOT
ATOM      1  C   UNL     1      -9.609  -0.269   7.132  0.00  0.00    +0.000 C 
ATOM      2  O   UNL     1     -10.313  -0.733   8.001  0.00  0.00    +0.000 OA
ENDROOT
BRANCH   1   3
ATOM      3  C   UNL     1      -8.386  -1.024   6.700  0.00  0.00    +0.000 C 
ATOM      4  C   UNL     1      -8.336  -1.855   5.610  0.00  0.00    +0.000 C 
BRANCH   4   5
ATOM      5  C   UNL     1      -7.022  -2.454   5.172  0.00  0.00    +0.000 A 
ATOM      6  C   UNL     1      -5.838  -2.037   5.747  0.00  0.00    +0.000 A 
ATOM      7  C   UNL     1      -4.652  -2.605   5.291  0.00  0.00    +0.000 A 
ATOM      8  C   UNL     1      -4.607  -3.564   4.288  0.00  0.00    +0.000 A 
ATOM      9  C   UNL     1      -5.801  -3.939   3.722  0.00  0.00    +0.000 A 
ATOM     10  C   UNL     1      -7.016  -3.395   4.161  0.00  0.00    +0.000 A 
BRANCH   8  11
ATOM     11  O   UNL     1      -3.399  -4.085   3.835  0.00  0.00    +0.000 OA
ATOM     12  C   UNL     1      -2.445  -4.399   4.858  0.00  0.00    +0.000 C 
ENDBRANCH   8  11
ENDBRANCH   4   5
ENDBRANCH   1   3
BRANCH   1  13
ATOM     13  O   UNL     1      -9.933   1.010   6.596  0.00  0.00    +0.000 OA
BRANCH  13  14
ATOM     14  C   UNL     1     -10.718   1.063   5.361  0.00  0.00    +0.000 C 
BRANCH  14  15
ATOM     15  C   UNL     1     -11.525  -0.191   5.093  0.00  0.00    +0.000 C 
ATOM     16  C   UNL     1     -11.739  -0.382   3.540  0.00  0.00    +0.000 C 
ENDBRANCH  14  15
BRANCH  14  17
ATOM     17  C   UNL     1      -9.832   1.317   4.175  0.00  0.00    +0.000 C 
BRANCH  17  18
ATOM     18  C   UNL     1      -8.576   2.109   4.578  0.00  0.00    +0.000 C 
BRANCH  18  20
ATOM     19  C   UNL     1      -6.214   1.610   5.215  0.00  0.00    +0.000 C 
ATOM     20  C   UNL     1      -7.300   1.437   4.137  0.00  0.00    +0.000 C 
ENDBRANCH  18  20
ENDBRANCH  17  18
ENDBRANCH  14  17
ENDBRANCH  13  14
ENDBRANCH   1  13
TORSDOF 9
ENDMDL
MODEL 3
REMARK VINA RESULT:      -3.2      6.776      8.171
REMARK  Name = bg33_2_ligand
REMARK  12 active torsions:
REMARK  status: ('A' for Active; 'I' for Inactive)
REMARK    1  A    between atoms: C_1  and  C_2
REMARK    2  A    between atoms: C_2  and  C_3
REMARK    3  A    between atoms: C_3  and  C_4
REMARK    4  A    between atoms: C_4  and  C_5
REMARK    5  A    between atoms: C_5  and  C_6
REMARK    6  A    between atoms: C_5  and  O_8
REMARK    7  A    between atoms: C_6  and  C_7
REMARK    8  A    between atoms: O_8  and  C_9
REMARK    9  A    between atoms: C_9  and  C_11
REMARK   10  A    between atoms: C_12  and  C_13
REMARK   11  A    between atoms: C_16  and  O_17
REMARK   12  A    between atoms: O_17  and  C_18
REMARK                            x       y       z     vdW  Elec       q    Type
REMARK                         _______ _______ _______ _____ _____    ______ ____
ROOT
ATOM      1  C   UNL     1      -5.968   5.993  -1.661  0.00  0.00    +0.000 C 
ATOM      2  O   UNL     1      -6.657   5.440  -2.490  0.00  0.00    +0.000 OA
ENDROOT
BRANCH   1   3
ATOM      3  C   UNL     1      -4.700   5.334  -1.205  0.00  0.00    +0.000 C 
ATOM      4  C   UNL     1      -4.146   5.501   0.039  0.00  0.00    +0.000 C 
BRANCH   4   5
ATOM      5  C   UNL     1      -2.948   4.681   0.452  0.00  0.00    +0.000 A 
ATOM      6  C   UNL     1      -1.781   4.728  -0.283  0.00  0.00    +0.000 A 
ATOM      7  C   UNL     1      -0.714   3.935   0.127  0.00  0.00    +0.000 A 
ATOM      8  C   UNL     1      -0.773   3.100   1.235  0.00  0.00    +0.000 A 
ATOM      9  C   UNL     1      -1.957   3.059   1.930  0.00  0.00    +0.000 A 
ATOM     10  C   UNL     1      -3.049   3.851   1.551  0.00  0.00    +0.000 A 
BRANCH   8  11
ATOM     11  O   UNL     1       0.304   2.295   1.595  0.00  0.00    +0.000 OA
ATOM     12  C   UNL     1       0.310   1.856   2.960  0.00  0.00    +0.000 C 
ENDBRANCH   8  11
ENDBRANCH   4   5
ENDBRANCH   1   3
BRANCH   1  13
ATOM     13  O   UNL     1      -6.421   7.223  -1.102  0.00  0.00    +0.000 OA
BRANCH  13  14
ATOM     14  C   UNL     1      -7.850   7.371  -0.822  0.00  0.00    +0.000 C 
BRANCH  14  15
ATOM     15  C   UNL     1      -8.478   8.591  -1.465  0.00  0.00    +0.000 C 
ATOM     16  C   UNL     1      -8.794   8.305  -2.986  0.00  0.00    +0.000 C 
ENDBRANCH  14  15
BRANCH  14  17
ATOM     17  C   UNL     1      -8.101   7.433   0.657  0.00  0.00    +0.000 C 
BRANCH  17  18
ATOM     18  C   UNL     1      -9.535   7.901   0.959  0.00  0.00    +0.000 C 
BRANCH  18  20
ATOM     19  C   UNL     1     -11.682   7.502   2.169  0.00  0.00    +0.000 C 
ATOM     20  C   UNL     1     -10.284   6.941   1.847  0.00  0.00    +0.000 C 
ENDBRANCH  18  20
ENDBRANCH  17  18
ENDBRANCH  14  17
ENDBRANCH  13  14
ENDBRANCH   1  13
TORSDOF 9
ENDMDL
MODEL 4
REMARK VINA RESULT:      -3.2      7.400     11.129
REMARK  Name = bg33_2_ligand
REMARK  12 active torsions:
REMARK  status: ('A' for Active; 'I' for Inactive)
REMARK    1  A    between atoms: C_1  and  C_2
REMARK    2  A    between atoms: C_2  and  C_3
REMARK    3  A    between atoms: C_3  and  C_4
REMARK    4  A    between atoms: C_4  and  C_5
REMARK    5  A    between atoms: C_5  and  C_6
REMARK    6  A    between atoms: C_5  and  O_8
REMARK    7  A    between atoms: C_6  and  C_7
REMARK    8  A    between atoms: O_8  and  C_9
REMARK    9  A    between atoms: C_9  and  C_11
REMARK   10  A    between atoms: C_12  and  C_13
REMARK   11  A    between atoms: C_16  and  O_17
REMARK   12  A    between atoms: O_17  and  C_18
REMARK                            x       y       z     vdW  Elec       q    Type
REMARK                         _______ _______ _______ _____ _____    ______ ____
ROOT
ATOM      1  C   UNL     1      -2.587   5.382  -0.948  0.00  0.00    +0.000 C 
ATOM      2  O   UNL     1      -1.638   4.925  -1.547  0.00  0.00    +0.000 OA
ENDROOT
BRANCH   1   3
ATOM      3  C   UNL     1      -3.766   5.890  -1.724  0.00  0.00    +0.000 C 
ATOM      4  C   UNL     1      -4.950   5.211  -1.863  0.00  0.00    +0.000 C 
BRANCH   4   5
ATOM      5  C   UNL     1      -6.127   5.870  -2.540  0.00  0.00    +0.000 A 
ATOM      6  C   UNL     1      -7.150   6.415  -1.790  0.00  0.00    +0.000 A 
ATOM      7  C   UNL     1      -8.224   6.990  -2.464  0.00  0.00    +0.000 A 
ATOM      8  C   UNL     1      -8.311   7.037  -3.849  0.00  0.00    +0.000 A 
ATOM      9  C   UNL     1      -7.288   6.465  -4.565  0.00  0.00    +0.000 A 
ATOM     10  C   UNL     1      -6.187   5.885  -3.920  0.00  0.00    +0.000 A 
BRANCH   8  11
ATOM     11  O   UNL     1      -9.417   7.591  -4.488  0.00  0.00    +0.000 OA
ATOM     12  C   UNL     1     -10.384   6.647  -4.967  0.00  0.00    +0.000 C 
ENDBRANCH   8  11
ENDBRANCH   4   5
ENDBRANCH   1   3
BRANCH   1  13
ATOM     13  O   UNL     1      -2.521   5.479   0.471  0.00  0.00    +0.000 OA
BRANCH  13  14
ATOM     14  C   UNL     1      -3.631   4.932   1.254  0.00  0.00    +0.000 C 
BRANCH  14  15
ATOM     15  C   UNL     1      -4.194   5.896   2.277  0.00  0.00    +0.000 C 
ATOM     16  C   UNL     1      -5.140   6.949   1.574  0.00  0.00    +0.000 C 
ENDBRANCH  14  15
BRANCH  14  17
ATOM     17  C   UNL     1      -3.215   3.676   1.965  0.00  0.00    +0.000 C 
BRANCH  17  18
ATOM     18  C   UNL     1      -1.700   3.661   2.227  0.00  0.00    +0.000 C 
BRANCH  18  20
ATOM     19  C   UNL     1       0.166   2.928   0.740  0.00  0.00    +0.000 C 
ATOM     20  C   UNL     1      -1.016   2.466   1.611  0.00  0.00    +0.000 C 
ENDBRANCH  18  20
ENDBRANCH  17  18
ENDBRANCH  14  17
ENDBRANCH  13  14
ENDBRANCH   1  13
TORSDOF 9
ENDMDL
MODEL 5
REMARK VINA RESULT:      -3.2      6.900      8.058
REMARK  Name = bg33_2_ligand
REMARK  12 active torsions:
REMARK  status: ('A' for Active; 'I' for Inactive)
REMARK    1  A    between atoms: C_1  and  C_2
REMARK    2  A    between atoms: C_2  and  C_3
REMARK    3  A    between atoms: C_3  and  C_4
REMARK    4  A    between atoms: C_4  and  C_5
REMARK    5  A    between atoms: C_5  and  C_6
REMARK    6  A    between atoms: C_5  and  O_8
REMARK    7  A    between atoms: C_6  and  C_7
REMARK    8  A    between atoms: O_8  and  C_9
REMARK    9  A    between atoms: C_9  and  C_11
REMARK   10  A    between atoms: C_12  and  C_13
REMARK   11  A    between atoms: C_16  and  O_17
REMARK   12  A    between atoms: O_17  and  C_18
REMARK                            x       y       z     vdW  Elec       q    Type
REMARK                         _______ _______ _______ _____ _____    ______ ____
ROOT
ATOM      1  C   UNL     1      -5.944   5.997  -1.762  0.00  0.00    +0.000 C 
ATOM      2  O   UNL     1      -6.650   5.493  -2.608  0.00  0.00    +0.000 OA
ENDROOT
BRANCH   1   3
ATOM      3  C   UNL     1      -4.848   5.182  -1.142  0.00  0.00    +0.000 C 
ATOM      4  C   UNL     1      -3.853   5.698  -0.351  0.00  0.00    +0.000 C 
BRANCH   4   5
ATOM      5  C   UNL     1      -2.881   4.776   0.345  0.00  0.00    +0.000 A 
ATOM      6  C   UNL     1      -1.608   4.595  -0.156  0.00  0.00    +0.000 A 
ATOM      7  C   UNL     1      -0.760   3.716   0.511  0.00  0.00    +0.000 A 
ATOM      8  C   UNL     1      -1.137   3.015   1.648  0.00  0.00    +0.000 A 
ATOM      9  C   UNL     1      -2.419   3.201   2.106  0.00  0.00    +0.000 A 
ATOM     10  C   UNL     1      -3.297   4.085   1.465  0.00  0.00    +0.000 A 
BRANCH   8  11
ATOM     11  O   UNL     1      -0.272   2.118   2.269  0.00  0.00    +0.000 OA
ATOM     12  C   UNL     1       1.114   2.483   2.237  0.00  0.00    +0.000 C 
ENDBRANCH   8  11
ENDBRANCH   4   5
ENDBRANCH   1   3
BRANCH   1  13
ATOM     13  O   UNL     1      -6.221   7.330  -1.342  0.00  0.00    +0.000 OA
BRANCH  13  14
ATOM     14  C   UNL     1      -6.988   7.520  -0.109  0.00  0.00    +0.000 C 
BRANCH  14  15
ATOM     15  C   UNL     1      -8.482   7.640  -0.329  0.00  0.00    +0.000 C 
ATOM     16  C   UNL     1      -9.249   7.510   1.047  0.00  0.00    +0.000 C 
ENDBRANCH  14  15
BRANCH  14  17
ATOM     17  C   UNL     1      -6.519   8.741   0.629  0.00  0.00    +0.000 C 
BRANCH  17  18
ATOM     18  C   UNL     1      -5.470   8.378   1.694  0.00  0.00    +0.000 C 
BRANCH  18  20
ATOM     19  C   UNL     1      -6.557   7.290   3.660  0.00  0.00    +0.000 C 
ATOM     20  C   UNL     1      -5.757   7.059   2.366  0.00  0.00    +0.000 C 
ENDBRANCH  18  20
ENDBRANCH  17  18
ENDBRANCH  14  17
ENDBRANCH  13  14
ENDBRANCH   1  13
TORSDOF 9
ENDMDL
MODEL 6
REMARK VINA RESULT:      -3.2      2.271      3.630
REMARK  Name = bg33_2_ligand
REMARK  12 active torsions:
REMARK  status: ('A' for Active; 'I' for Inactive)
REMARK    1  A    between atoms: C_1  and  C_2
REMARK    2  A    between atoms: C_2  and  C_3
REMARK    3  A    between atoms: C_3  and  C_4
REMARK    4  A    between atoms: C_4  and  C_5
REMARK    5  A    between atoms: C_5  and  C_6
REMARK    6  A    between atoms: C_5  and  O_8
REMARK    7  A    between atoms: C_6  and  C_7
REMARK    8  A    between atoms: O_8  and  C_9
REMARK    9  A    between atoms: C_9  and  C_11
REMARK   10  A    between atoms: C_12  and  C_13
REMARK   11  A    between atoms: C_16  and  O_17
REMARK   12  A    between atoms: O_17  and  C_18
REMARK                            x       y       z     vdW  Elec       q    Type
REMARK                         _______ _______ _______ _____ _____    ______ ____
ROOT
ATOM      1  C   UNL     1      -7.752   1.843   4.295  0.00  0.00    +0.000 C 
ATOM      2  O   UNL     1      -8.860   1.577   3.885  0.00  0.00    +0.000 OA
ENDROOT
BRANCH   1   3
ATOM      3  C   UNL     1      -6.733   0.748   4.413  0.00  0.00    +0.000 C 
ATOM      4  C   UNL     1      -6.890  -0.373   5.188  0.00  0.00    +0.000 C 
BRANCH   4   5
ATOM      5  C   UNL     1      -5.873  -1.486   5.127  0.00  0.00    +0.000 A 
ATOM      6  C   UNL     1      -6.061  -2.561   4.281  0.00  0.00    +0.000 A 
ATOM      7  C   UNL     1      -5.105  -3.571   4.280  0.00  0.00    +0.000 A 
ATOM      8  C   UNL     1      -3.977  -3.548   5.089  0.00  0.00    +0.000 A 
ATOM      9  C   UNL     1      -3.832  -2.476   5.936  0.00  0.00    +0.000 A 
ATOM     10  C   UNL     1      -4.771  -1.436   5.958  0.00  0.00    +0.000 A 
BRANCH   8  11
ATOM     11  O   UNL     1      -3.059  -4.594   5.085  0.00  0.00    +0.000 OA
ATOM     12  C   UNL     1      -1.754  -4.264   5.579  0.00  0.00    +0.000 C 
ENDBRANCH   8  11
ENDBRANCH   4   5
ENDBRANCH   1   3
BRANCH   1  13
ATOM     13  O   UNL     1      -7.475   3.177   4.710  0.00  0.00    +0.000 OA
BRANCH  13  14
ATOM     14  C   UNL     1      -6.123   3.489   5.179  0.00  0.00    +0.000 C 
BRANCH  14  15
ATOM     15  C   UNL     1      -5.964   3.417   6.684  0.00  0.00    +0.000 C 
ATOM     16  C   UNL     1      -4.736   2.497   7.060  0.00  0.00    +0.000 C 
ENDBRANCH  14  15
BRANCH  14  17
ATOM     17  C   UNL     1      -5.701   4.856   4.723  0.00  0.00    +0.000 C 
BRANCH  17  18
ATOM     18  C   UNL     1      -4.442   4.785   3.842  0.00  0.00    +0.000 C 
BRANCH  18  20
ATOM     19  C   UNL     1      -3.100   3.461   2.206  0.00  0.00    +0.000 C 
ATOM     20  C   UNL     1      -4.208   3.408   3.274  0.00  0.00    +0.000 C 
ENDBRANCH  18  20
ENDBRANCH  17  18
ENDBRANCH  14  17
ENDBRANCH  13  14
ENDBRANCH   1  13
TORSDOF 9
ENDMDL
MODEL 7
REMARK VINA RESULT:      -3.2      6.006      7.216
REMARK  Name = bg33_2_ligand
REMARK  12 active torsions:
REMARK  status: ('A' for Active; 'I' for Inactive)
REMARK    1  A    between atoms: C_1  and  C_2
REMARK    2  A    between atoms: C_2  and  C_3
REMARK    3  A    between atoms: C_3  and  C_4
REMARK    4  A    between atoms: C_4  and  C_5
REMARK    5  A    between atoms: C_5  and  C_6
REMARK    6  A    between atoms: C_5  and  O_8
REMARK    7  A    between atoms: C_6  and  C_7
REMARK    8  A    between atoms: O_8  and  C_9
REMARK    9  A    between atoms: C_9  and  C_11
REMARK   10  A    between atoms: C_12  and  C_13
REMARK   11  A    between atoms: C_16  and  O_17
REMARK   12  A    between atoms: O_17  and  C_18
REMARK                            x       y       z     vdW  Elec       q    Type
REMARK                         _______ _______ _______ _____ _____    ______ ____
ROOT
ATOM      1  C   UNL     1      -0.932   3.169   1.968  0.00  0.00    +0.000 C 
ATOM      2  O   UNL     1      -0.518   4.301   1.851  0.00  0.00    +0.000 OA
ENDROOT
BRANCH   1   3
ATOM      3  C   UNL     1       0.002   2.093   2.439  0.00  0.00    +0.000 C 
ATOM      4  C   UNL     1       0.307   1.857   3.755  0.00  0.00    +0.000 C 
BRANCH   4   5
ATOM      5  C   UNL     1       1.143   0.659   4.137  0.00  0.00    +0.000 A 
ATOM      6  C   UNL     1       2.518   0.696   4.008  0.00  0.00    +0.000 A 
ATOM      7  C   UNL     1       3.239  -0.443   4.351  0.00  0.00    +0.000 A 
ATOM      8  C   UNL     1       2.642  -1.609   4.811  0.00  0.00    +0.000 A 
ATOM      9  C   UNL     1       1.272  -1.619   4.905  0.00  0.00    +0.000 A 
ATOM     10  C   UNL     1       0.513  -0.488   4.576  0.00  0.00    +0.000 A 
BRANCH   8  11
ATOM     11  O   UNL     1       3.395  -2.740   5.113  0.00  0.00    +0.000 OA
ATOM     12  C   UNL     1       4.635  -2.488   5.787  0.00  0.00    +0.000 C 
ENDBRANCH   8  11
ENDBRANCH   4   5
ENDBRANCH   1   3
BRANCH   1  13
ATOM     13  O   UNL     1      -2.277   2.886   1.594  0.00  0.00    +0.000 OA
BRANCH  13  14
ATOM     14  C   UNL     1      -3.355   3.476   2.390  0.00  0.00    +0.000 C 
BRANCH  14  15
ATOM     15  C   UNL     1      -3.715   4.891   1.983  0.00  0.00    +0.000 C 
ATOM     16  C   UNL     1      -3.773   5.008   0.409  0.00  0.00    +0.000 C 
ENDBRANCH  14  15
BRANCH  14  17
ATOM     17  C   UNL     1      -3.001   3.480   3.849  0.00  0.00    +0.000 C 
BRANCH  17  18
ATOM     18  C   UNL     1      -4.262   3.453   4.728  0.00  0.00    +0.000 C 
BRANCH  18  20
ATOM     19  C   UNL     1      -6.622   2.682   4.464  0.00  0.00    +0.000 C 
ATOM     20  C   UNL     1      -5.141   2.261   4.447  0.00  0.00    +0.000 C 
ENDBRANCH  18  20
ENDBRANCH  17  18
ENDBRANCH  14  17
ENDBRANCH  13  14
ENDBRANCH   1  13
TORSDOF 9
ENDMDL
MODEL 8
REMARK VINA RESULT:      -3.2      0.981      3.210
REMARK  Name = bg33_2_ligand
REMARK  12 active torsions:
REMARK  status: ('A' for Active; 'I' for Inactive)
REMARK    1  A    between atoms: C_1  and  C_2
REMARK    2  A    between atoms: C_2  and  C_3
REMARK    3  A    between atoms: C_3  and  C_4
REMARK    4  A    between atoms: C_4  and  C_5
REMARK    5  A    between atoms: C_5  and  C_6
REMARK    6  A    between atoms: C_5  and  O_8
REMARK    7  A    between atoms: C_6  and  C_7
REMARK    8  A    between atoms: O_8  and  C_9
REMARK    9  A    between atoms: C_9  and  C_11
REMARK   10  A    between atoms: C_12  and  C_13
REMARK   11  A    between atoms: C_16  and  O_17
REMARK   12  A    between atoms: O_17  and  C_18
REMARK                            x       y       z     vdW  Elec       q    Type
REMARK                         _______ _______ _______ _____ _____    ______ ____
ROOT
ATOM      1  C   UNL     1      -6.966   1.588   4.877  0.00  0.00    +0.000 C 
ATOM      2  O   UNL     1      -6.393   2.641   4.701  0.00  0.00    +0.000 OA
ENDROOT
BRANCH   1   3
ATOM      3  C   UNL     1      -6.236   0.304   4.615  0.00  0.00    +0.000 C 
ATOM      4  C   UNL     1      -6.255  -0.781   5.454  0.00  0.00    +0.000 C 
BRANCH   4   5
ATOM      5  C   UNL     1      -5.608  -2.078   5.032  0.00  0.00    +0.000 A 
ATOM      6  C   UNL     1      -6.227  -2.903   4.115  0.00  0.00    +0.000 A 
ATOM      7  C   UNL     1      -5.599  -4.098   3.778  0.00  0.00    +0.000 A 
ATOM      8  C   UNL     1      -4.385  -4.496   4.323  0.00  0.00    +0.000 A 
ATOM      9  C   UNL     1      -3.808  -3.663   5.249  0.00  0.00    +0.000 A 
ATOM     10  C   UNL     1      -4.407  -2.447   5.607  0.00  0.00    +0.000 A 
BRANCH   8  11
ATOM     11  O   UNL     1      -3.803  -5.714   3.986  0.00  0.00    +0.000 OA
ATOM     12  C   UNL     1      -2.408  -5.832   4.293  0.00  0.00    +0.000 C 
ENDBRANCH   8  11
ENDBRANCH   4   5
ENDBRANCH   1   3
BRANCH   1  13
ATOM     13  O   UNL     1      -8.336   1.609   5.267  0.00  0.00    +0.000 OA
BRANCH  13  14
ATOM     14  C   UNL     1      -9.348   1.806   4.226  0.00  0.00    +0.000 C 
BRANCH  14  15
ATOM     15  C   UNL     1     -10.025   3.160   4.278  0.00  0.00    +0.000 C 
ATOM     16  C   UNL     1      -9.828   3.816   5.701  0.00  0.00    +0.000 C 
ENDBRANCH  14  15
BRANCH  14  17
ATOM     17  C   UNL     1     -10.406   0.744   4.303  0.00  0.00    +0.000 C 
BRANCH  17  18
ATOM     18  C   UNL     1     -10.182  -0.180   5.513  0.00  0.00    +0.000 C 
BRANCH  18  20
ATOM     19  C   UNL     1      -9.411  -2.412   6.321  0.00  0.00    +0.000 C 
ATOM     20  C   UNL     1      -9.924  -1.610   5.111  0.00  0.00    +0.000 C 
ENDBRANCH  18  20
ENDBRANCH  17  18
ENDBRANCH  14  17
ENDBRANCH  13  14
ENDBRANCH   1  13
TORSDOF 9
ENDMDL
MODEL 9
REMARK VINA RESULT:      -3.2      5.204      9.710
REMARK  Name = bg33_2_ligand
REMARK  12 active torsions:
REMARK  status: ('A' for Active; 'I' for Inactive)
REMARK    1  A    between atoms: C_1  and  C_2
REMARK    2  A    between atoms: C_2  and  C_3
REMARK    3  A    between atoms: C_3  and  C_4
REMARK    4  A    between atoms: C_4  and  C_5
REMARK    5  A    between atoms: C_5  and  C_6
REMARK    6  A    between atoms: C_5  and  O_8
REMARK    7  A    between atoms: C_6  and  C_7
REMARK    8  A    between atoms: O_8  and  C_9
REMARK    9  A    between atoms: C_9  and  C_11
REMARK   10  A    between atoms: C_12  and  C_13
REMARK   11  A    between atoms: C_16  and  O_17
REMARK   12  A    between atoms: O_17  and  C_18
REMARK                            x       y       z     vdW  Elec       q    Type
REMARK                         _______ _______ _______ _____ _____    ______ ____
ROOT
ATOM      1  C   UNL     1       1.429  -3.657   8.222  0.00  0.00    +0.000 C 
ATOM      2  O   UNL     1       1.527  -4.296   9.246  0.00  0.00    +0.000 OA
ENDROOT
BRANCH   1   3
ATOM      3  C   UNL     1       0.218  -3.845   7.356  0.00  0.00    +0.000 C 
ATOM      4  C   UNL     1      -0.874  -3.014   7.363  0.00  0.00    +0.000 C 
BRANCH   4   5
ATOM      5  C   UNL     1      -1.978  -3.204   6.351  0.00  0.00    +0.000 A 
ATOM      6  C   UNL     1      -3.158  -2.496   6.463  0.00  0.00    +0.000 A 
ATOM      7  C   UNL     1      -4.153  -2.726   5.517  0.00  0.00    +0.000 A 
ATOM      8  C   UNL     1      -4.012  -3.632   4.474  0.00  0.00    +0.000 A 
ATOM      9  C   UNL     1      -2.835  -4.336   4.406  0.00  0.00    +0.000 A 
ATOM     10  C   UNL     1      -1.808  -4.124   5.336  0.00  0.00    +0.000 A 
BRANCH   8  11
ATOM     11  O   UNL     1      -5.042  -3.859   3.567  0.00  0.00    +0.000 OA
ATOM     12  C   UNL     1      -6.301  -3.263   3.907  0.00  0.00    +0.000 C 
ENDBRANCH   8  11
ENDBRANCH   4   5
ENDBRANCH   1   3
BRANCH   1  13
ATOM     13  O   UNL     1       2.498  -2.795   7.845  0.00  0.00    +0.000 OA
BRANCH  13  14
ATOM     14  C   UNL     1       2.981  -2.856   6.464  0.00  0.00    +0.000 C 
BRANCH  14  15
ATOM     15  C   UNL     1       4.323  -3.543   6.313  0.00  0.00    +0.000 C 
ATOM     16  C   UNL     1       4.118  -5.079   6.004  0.00  0.00    +0.000 C 
ENDBRANCH  14  15
BRANCH  14  17
ATOM     17  C   UNL     1       3.085  -1.479   5.873  0.00  0.00    +0.000 C 
BRANCH  17  18
ATOM     18  C   UNL     1       2.329  -1.388   4.536  0.00  0.00    +0.000 C 
BRANCH  18  20
ATOM     19  C   UNL     1       0.568  -0.031   5.671  0.00  0.00    +0.000 C 
ATOM     20  C   UNL     1       0.843  -1.211   4.721  0.00  0.00    +0.000 C 
ENDBRANCH  18  20
ENDBRANCH  17  18
ENDBRANCH  14  17
ENDBRANCH  13  14
ENDBRANCH   1  13
TORSDOF 9
ENDMDL
