REMARK  Name = ox1_esm1_f8_ligand
REMARK  5 active torsions:
REMARK  status: ('A' for Active; 'I' for Inactive)
REMARK    1  A    between atoms: C_1  and  O_2
REMARK    2  A    between atoms: O_2  and  C_3
REMARK    3  A    between atoms: C_6  and  C_7
REMARK    4  A    between atoms: C_7  and  C_9
REMARK    5  A    between atoms: C_15  and  O_16
REMARK                            x       y       z     vdW  Elec       q    Type
REMARK                         _______ _______ _______ _____ _____    ______ ____
ROOT
ATOM      1  C   UNL     1       7.023  -3.925  -3.963  0.00  0.00    +0.000 A 
ATOM      2  C   UNL     1       6.676  -2.755  -3.288  0.00  0.00    +0.000 A 
ATOM      3  C   UNL     1       6.957  -1.517  -3.847  0.00  0.00    +0.000 A 
ATOM      4  C   UNL     1       7.572  -1.419  -5.083  0.00  0.00    +0.000 A 
ATOM      5  C   UNL     1       7.934  -2.596  -5.770  0.00  0.00    +0.000 A 
ATOM      6  C   UNL     1       7.651  -3.835  -5.196  0.00  0.00    +0.000 A 
ENDROOT
BRANCH   1   8
ATOM      7  C   UNL     1       7.054  -6.358  -4.008  0.00  0.00    +0.000 C 
ATOM      8  O   UNL     1       6.718  -5.119  -3.377  0.00  0.00    +0.000 OA
ENDBRANCH   1   8
BRANCH   4   9
ATOM      9  C   UNL     1       7.858  -0.077  -5.686  0.00  0.00    +0.000 C 
ATOM     10  O   UNL     1       8.552  -0.007  -6.697  0.00  0.00    +0.000 OA
BRANCH   9  11
ATOM     11  C   UNL     1       7.332   1.172  -5.060  0.00  0.00    +0.000 A 
ATOM     12  C   UNL     1       8.165   2.156  -4.668  0.00  0.00    +0.000 A 
ATOM     13  C   UNL     1       7.748   3.353  -4.115  0.00  0.00    +0.000 A 
ATOM     14  C   UNL     1       6.404   3.553  -3.910  0.00  0.00    +0.000 A 
ATOM     15  C   UNL     1       5.512   2.558  -4.286  0.00  0.00    +0.000 A 
ATOM     16  C   UNL     1       5.986   1.375  -4.854  0.00  0.00    +0.000 A 
ENDBRANCH   9  11
ENDBRANCH   4   9
BRANCH   5  17
ATOM     17  O   UNL     1       8.557  -2.502  -6.981  0.00  0.00    +0.000 OA
ATOM     18  H   UNL     1       8.814  -3.324  -7.470  0.00  0.00    +0.000 HD
ENDBRANCH   5  17
TORSDOF 4
