MODEL 1
REMARK VINA RESULT:      -4.2      0.000      0.000
REMARK  Name = ox1_esm1_f8_ligand
REMARK  5 active torsions:
REMARK  status: ('A' for Active; 'I' for Inactive)
REMARK    1  A    between atoms: C_1  and  O_2
REMARK    2  A    between atoms: O_2  and  C_3
REMARK    3  A    between atoms: C_6  and  C_7
REMARK    4  A    between atoms: C_7  and  C_9
REMARK    5  A    between atoms: C_15  and  O_16
REMARK                            x       y       z     vdW  Elec       q    Type
REMARK                         _______ _______ _______ _____ _____    ______ ____
ROOT
ATOM      1  C   UNL     1       1.446  -9.582 -10.225  0.00  0.00    +0.000 A 
ATOM      2  C   UNL     1       1.603 -10.166 -11.481  0.00  0.00    +0.000 A 
ATOM      3  C   UNL     1       0.910  -9.666 -12.574  0.00  0.00    +0.000 A 
ATOM      4  C   UNL     1       0.065  -8.578 -12.443  0.00  0.00    +0.000 A 
ATOM      5  C   UNL     1      -0.106  -7.986 -11.175  0.00  0.00    +0.000 A 
ATOM      6  C   UNL     1       0.592  -8.499 -10.082  0.00  0.00    +0.000 A 
ENDROOT
BRANCH   1   8
ATOM      7  C   UNL     1       2.469 -11.497  -9.126  0.00  0.00    +0.000 C 
ATOM      8  O   UNL     1       2.156 -10.102  -9.182  0.00  0.00    +0.000 OA
ENDBRANCH   1   8
BRANCH   4   9
ATOM      9  C   UNL     1      -0.668  -8.036 -13.632  0.00  0.00    +0.000 C 
ATOM     10  O   UNL     1      -1.496  -8.742 -14.203  0.00  0.00    +0.000 OA
BRANCH   9  11
ATOM     11  C   UNL     1      -0.387  -6.662 -14.145  0.00  0.00    +0.000 A 
ATOM     12  C   UNL     1      -1.354  -5.928 -14.729  0.00  0.00    +0.000 A 
ATOM     13  C   UNL     1      -1.176  -4.638 -15.194  0.00  0.00    +0.000 A 
ATOM     14  C   UNL     1       0.069  -4.066 -15.096  0.00  0.00    +0.000 A 
ATOM     15  C   UNL     1       1.098  -4.794 -14.514  0.00  0.00    +0.000 A 
ATOM     16  C   UNL     1       0.860  -6.087 -14.047  0.00  0.00    +0.000 A 
ENDBRANCH   9  11
ENDBRANCH   4   9
BRANCH   5  17
ATOM     17  O   UNL     1      -0.953  -6.924 -11.039  0.00  0.00    +0.000 OA
ATOM     18  H   UNL     1      -0.984  -6.223 -11.738  0.00  0.00    +0.000 HD
ENDBRANCH   5  17
TORSDOF 4
ENDMDL
MODEL 2
REMARK VINA RESULT:      -4.1     10.576     12.528
REMARK  Name = ox1_esm1_f8_ligand
REMARK  5 active torsions:
REMARK  status: ('A' for Active; 'I' for Inactive)
REMARK    1  A    between atoms: C_1  and  O_2
REMARK    2  A    between atoms: O_2  and  C_3
REMARK    3  A    between atoms: C_6  and  C_7
REMARK    4  A    between atoms: C_7  and  C_9
REMARK    5  A    between atoms: C_15  and  O_16
REMARK                            x       y       z     vdW  Elec       q    Type
REMARK                         _______ _______ _______ _____ _____    ______ ____
ROOT
ATOM      1  C   UNL     1       2.556  -2.126  -6.754  0.00  0.00    +0.000 A 
ATOM      2  C   UNL     1       2.628  -0.768  -6.441  0.00  0.00    +0.000 A 
ATOM      3  C   UNL     1       3.672  -0.284  -5.667  0.00  0.00    +0.000 A 
ATOM      4  C   UNL     1       4.664  -1.131  -5.204  0.00  0.00    +0.000 A 
ATOM      5  C   UNL     1       4.597  -2.506  -5.508  0.00  0.00    +0.000 A 
ATOM      6  C   UNL     1       3.540  -2.982  -6.283  0.00  0.00    +0.000 A 
ENDROOT
BRANCH   1   8
ATOM      7  C   UNL     1       0.303  -1.799  -7.612  0.00  0.00    +0.000 C 
ATOM      8  O   UNL     1       1.515  -2.553  -7.526  0.00  0.00    +0.000 OA
ENDBRANCH   1   8
BRANCH   4   9
ATOM      9  C   UNL     1       5.797  -0.597  -4.381  0.00  0.00    +0.000 C 
ATOM     10  O   UNL     1       6.917  -0.518  -4.878  0.00  0.00    +0.000 OA
BRANCH   9  11
ATOM     11  C   UNL     1       5.585  -0.184  -2.962  0.00  0.00    +0.000 A 
ATOM     12  C   UNL     1       5.900  -1.011  -1.945  0.00  0.00    +0.000 A 
ATOM     13  C   UNL     1       5.765  -0.684  -0.608  0.00  0.00    +0.000 A 
ATOM     14  C   UNL     1       5.243   0.544  -0.277  0.00  0.00    +0.000 A 
ATOM     15  C   UNL     1       4.891   1.420  -1.295  0.00  0.00    +0.000 A 
ATOM     16  C   UNL     1       5.063   1.045  -2.628  0.00  0.00    +0.000 A 
ENDBRANCH   9  11
ENDBRANCH   4   9
BRANCH   5  17
ATOM     17  O   UNL     1       5.565  -3.346  -5.037  0.00  0.00    +0.000 OA
ATOM     18  H   UNL     1       6.240  -3.012  -4.394  0.00  0.00    +0.000 HD
ENDBRANCH   5  17
TORSDOF 4
ENDMDL
MODEL 3
REMARK VINA RESULT:      -3.9     13.497     14.790
REMARK  Name = ox1_esm1_f8_ligand
REMARK  5 active torsions:
REMARK  status: ('A' for Active; 'I' for Inactive)
REMARK    1  A    between atoms: C_1  and  O_2
REMARK    2  A    between atoms: O_2  and  C_3
REMARK    3  A    between atoms: C_6  and  C_7
REMARK    4  A    between atoms: C_7  and  C_9
REMARK    5  A    between atoms: C_15  and  O_16
REMARK                            x       y       z     vdW  Elec       q    Type
REMARK                         _______ _______ _______ _____ _____    ______ ____
ROOT
ATOM      1  C   UNL     1       8.126   0.369   0.497  0.00  0.00    +0.000 A 
ATOM      2  C   UNL     1       6.803   0.001   0.740  0.00  0.00    +0.000 A 
ATOM      3  C   UNL     1       5.986  -0.398  -0.308  0.00  0.00    +0.000 A 
ATOM      4  C   UNL     1       6.469  -0.451  -1.604  0.00  0.00    +0.000 A 
ATOM      5  C   UNL     1       7.803  -0.073  -1.861  0.00  0.00    +0.000 A 
ATOM      6  C   UNL     1       8.613   0.332  -0.801  0.00  0.00    +0.000 A 
ENDROOT
BRANCH   1   8
ATOM      7  C   UNL     1       8.346   0.806   2.881  0.00  0.00    +0.000 C 
ATOM      8  O   UNL     1       8.893   0.746   1.561  0.00  0.00    +0.000 OA
ENDBRANCH   1   8
BRANCH   4   9
ATOM      9  C   UNL     1       5.583  -0.898  -2.728  0.00  0.00    +0.000 C 
ATOM     10  O   UNL     1       5.709  -2.033  -3.178  0.00  0.00    +0.000 OA
BRANCH   9  11
ATOM     11  C   UNL     1       4.571   0.026  -3.320  0.00  0.00    +0.000 A 
ATOM     12  C   UNL     1       4.193  -0.092  -4.608  0.00  0.00    +0.000 A 
ATOM     13  C   UNL     1       3.237   0.703  -5.213  0.00  0.00    +0.000 A 
ATOM     14  C   UNL     1       2.653   1.708  -4.479  0.00  0.00    +0.000 A 
ATOM     15  C   UNL     1       3.025   1.874  -3.152  0.00  0.00    +0.000 A 
ATOM     16  C   UNL     1       3.984   1.033  -2.587  0.00  0.00    +0.000 A 
ENDBRANCH   9  11
ENDBRANCH   4   9
BRANCH   5  17
ATOM     17  O   UNL     1       8.275  -0.106  -3.141  0.00  0.00    +0.000 OA
ATOM     18  H   UNL     1       8.029  -0.855  -3.740  0.00  0.00    +0.000 HD
ENDBRANCH   5  17
TORSDOF 4
ENDMDL
MODEL 4
REMARK VINA RESULT:      -3.8      2.107      6.065
REMARK  Name = ox1_esm1_f8_ligand
REMARK  5 active torsions:
REMARK  status: ('A' for Active; 'I' for Inactive)
REMARK    1  A    between atoms: C_1  and  O_2
REMARK    2  A    between atoms: O_2  and  C_3
REMARK    3  A    between atoms: C_6  and  C_7
REMARK    4  A    between atoms: C_7  and  C_9
REMARK    5  A    between atoms: C_15  and  O_16
REMARK                            x       y       z     vdW  Elec       q    Type
REMARK                         _______ _______ _______ _____ _____    ______ ____
ROOT
ATOM      1  C   UNL     1       0.906  -3.924 -15.009  0.00  0.00    +0.000 A 
ATOM      2  C   UNL     1       1.689  -4.354 -13.938  0.00  0.00    +0.000 A 
ATOM      3  C   UNL     1       1.262  -5.403 -13.137  0.00  0.00    +0.000 A 
ATOM      4  C   UNL     1       0.064  -6.047 -13.391  0.00  0.00    +0.000 A 
ATOM      5  C   UNL     1      -0.739  -5.615 -14.466  0.00  0.00    +0.000 A 
ATOM      6  C   UNL     1      -0.302  -4.556 -15.261  0.00  0.00    +0.000 A 
ENDROOT
BRANCH   1   8
ATOM      7  C   UNL     1       1.161  -1.533 -15.386  0.00  0.00    +0.000 C 
ATOM      8  O   UNL     1       1.372  -2.894 -15.773  0.00  0.00    +0.000 OA
ENDBRANCH   1   8
BRANCH   4   9
ATOM      9  C   UNL     1      -0.382  -7.190 -12.529  0.00  0.00    +0.000 C 
ATOM     10  O   UNL     1      -1.146  -6.975 -11.592  0.00  0.00    +0.000 OA
BRANCH   9  11
ATOM     11  C   UNL     1       0.109  -8.577 -12.782  0.00  0.00    +0.000 A 
ATOM     12  C   UNL     1       0.865  -9.222 -11.871  0.00  0.00    +0.000 A 
ATOM     13  C   UNL     1       1.324 -10.518 -12.020  0.00  0.00    +0.000 A 
ATOM     14  C   UNL     1       1.034 -11.192 -13.182  0.00  0.00    +0.000 A 
ATOM     15  C   UNL     1       0.270 -10.558 -14.153  0.00  0.00    +0.000 A 
ATOM     16  C   UNL     1      -0.181  -9.255 -13.944  0.00  0.00    +0.000 A 
ENDBRANCH   9  11
ENDBRANCH   4   9
BRANCH   5  17
ATOM     17  O   UNL     1      -1.930  -6.237 -14.707  0.00  0.00    +0.000 OA
ATOM     18  H   UNL     1      -2.073  -6.718 -15.561  0.00  0.00    +0.000 HD
ENDBRANCH   5  17
TORSDOF 4
ENDMDL
MODEL 5
REMARK VINA RESULT:      -3.8      8.198      9.190
REMARK  Name = ox1_esm1_f8_ligand
REMARK  5 active torsions:
REMARK  status: ('A' for Active; 'I' for Inactive)
REMARK    1  A    between atoms: C_1  and  O_2
REMARK    2  A    between atoms: O_2  and  C_3
REMARK    3  A    between atoms: C_6  and  C_7
REMARK    4  A    between atoms: C_7  and  C_9
REMARK    5  A    between atoms: C_15  and  O_16
REMARK                            x       y       z     vdW  Elec       q    Type
REMARK                         _______ _______ _______ _____ _____    ______ ____
ROOT
ATOM      1  C   UNL     1       5.111  -1.579  -4.859  0.00  0.00    +0.000 A 
ATOM      2  C   UNL     1       4.429  -0.581  -5.554  0.00  0.00    +0.000 A 
ATOM      3  C   UNL     1       3.518  -0.918  -6.545  0.00  0.00    +0.000 A 
ATOM      4  C   UNL     1       3.261  -2.243  -6.853  0.00  0.00    +0.000 A 
ATOM      5  C   UNL     1       3.952  -3.259  -6.162  0.00  0.00    +0.000 A 
ATOM      6  C   UNL     1       4.869  -2.909  -5.171  0.00  0.00    +0.000 A 
ENDROOT
BRANCH   1   8
ATOM      7  C   UNL     1       5.589  -1.126  -2.517  0.00  0.00    +0.000 C 
ATOM      8  O   UNL     1       5.990  -1.199  -3.888  0.00  0.00    +0.000 OA
ENDBRANCH   1   8
BRANCH   4   9
ATOM      9  C   UNL     1       2.264  -2.597  -7.915  0.00  0.00    +0.000 C 
ATOM     10  O   UNL     1       2.588  -3.376  -8.808  0.00  0.00    +0.000 OA
BRANCH   9  11
ATOM     11  C   UNL     1       0.897  -1.998  -7.912  0.00  0.00    +0.000 A 
ATOM     12  C   UNL     1       0.418  -1.357  -8.996  0.00  0.00    +0.000 A 
ATOM     13  C   UNL     1      -0.849  -0.810  -9.079  0.00  0.00    +0.000 A 
ATOM     14  C   UNL     1      -1.673  -0.883  -7.981  0.00  0.00    +0.000 A 
ATOM     15  C   UNL     1      -1.213  -1.523  -6.838  0.00  0.00    +0.000 A 
ATOM     16  C   UNL     1       0.070  -2.071  -6.814  0.00  0.00    +0.000 A 
ENDBRANCH   9  11
ENDBRANCH   4   9
BRANCH   5  17
ATOM     17  O   UNL     1       3.714  -4.566  -6.476  0.00  0.00    +0.000 OA
ATOM     18  H   UNL     1       3.064  -5.092  -5.945  0.00  0.00    +0.000 HD
ENDBRANCH   5  17
TORSDOF 4
ENDMDL
MODEL 6
REMARK VINA RESULT:      -3.7     11.442     13.175
REMARK  Name = ox1_esm1_f8_ligand
REMARK  5 active torsions:
REMARK  status: ('A' for Active; 'I' for Inactive)
REMARK    1  A    between atoms: C_1  and  O_2
REMARK    2  A    between atoms: O_2  and  C_3
REMARK    3  A    between atoms: C_6  and  C_7
REMARK    4  A    between atoms: C_7  and  C_9
REMARK    5  A    between atoms: C_15  and  O_16
REMARK                            x       y       z     vdW  Elec       q    Type
REMARK                         _______ _______ _______ _____ _____    ______ ____
ROOT
ATOM      1  C   UNL     1       4.473   1.492  -1.490  0.00  0.00    +0.000 A 
ATOM      2  C   UNL     1       3.591   1.326  -2.557  0.00  0.00    +0.000 A 
ATOM      3  C   UNL     1       3.959   0.561  -3.654  0.00  0.00    +0.000 A 
ATOM      4  C   UNL     1       5.196  -0.058  -3.706  0.00  0.00    +0.000 A 
ATOM      5  C   UNL     1       6.098   0.110  -2.635  0.00  0.00    +0.000 A 
ATOM      6  C   UNL     1       5.719   0.885  -1.540  0.00  0.00    +0.000 A 
ENDROOT
BRANCH   1   8
ATOM      7  C   UNL     1       4.873   3.308   0.080  0.00  0.00    +0.000 C 
ATOM      8  O   UNL     1       4.062   2.246  -0.429  0.00  0.00    +0.000 OA
ENDBRANCH   1   8
BRANCH   4   9
ATOM      9  C   UNL     1       5.579  -0.895  -4.889  0.00  0.00    +0.000 C 
ATOM     10  O   UNL     1       6.416  -0.470  -5.681  0.00  0.00    +0.000 OA
BRANCH   9  11
ATOM     11  C   UNL     1       4.939  -2.222  -5.128  0.00  0.00    +0.000 A 
ATOM     12  C   UNL     1       5.289  -3.302  -4.403  0.00  0.00    +0.000 A 
ATOM     13  C   UNL     1       4.715  -4.552  -4.544  0.00  0.00    +0.000 A 
ATOM     14  C   UNL     1       3.751  -4.732  -5.507  0.00  0.00    +0.000 A 
ATOM     15  C   UNL     1       3.371  -3.648  -6.286  0.00  0.00    +0.000 A 
ATOM     16  C   UNL     1       3.972  -2.404  -6.092  0.00  0.00    +0.000 A 
ENDBRANCH   9  11
ENDBRANCH   4   9
BRANCH   5  17
ATOM     17  O   UNL     1       7.325  -0.484  -2.691  0.00  0.00    +0.000 OA
ATOM     18  H   UNL     1       7.622  -0.927  -3.526  0.00  0.00    +0.000 HD
ENDBRANCH   5  17
TORSDOF 4
ENDMDL
MODEL 7
REMARK VINA RESULT:      -3.7      2.472      5.500
REMARK  Name = ox1_esm1_f8_ligand
REMARK  5 active torsions:
REMARK  status: ('A' for Active; 'I' for Inactive)
REMARK    1  A    between atoms: C_1  and  O_2
REMARK    2  A    between atoms: O_2  and  C_3
REMARK    3  A    between atoms: C_6  and  C_7
REMARK    4  A    between atoms: C_7  and  C_9
REMARK    5  A    between atoms: C_15  and  O_16
REMARK                            x       y       z     vdW  Elec       q    Type
REMARK                         _______ _______ _______ _____ _____    ______ ____
ROOT
ATOM      1  C   UNL     1       2.241  -3.726 -13.255  0.00  0.00    +0.000 A 
ATOM      2  C   UNL     1       1.232  -4.150 -14.119  0.00  0.00    +0.000 A 
ATOM      3  C   UNL     1       0.442  -5.241 -13.788  0.00  0.00    +0.000 A 
ATOM      4  C   UNL     1       0.631  -5.918 -12.596  0.00  0.00    +0.000 A 
ATOM      5  C   UNL     1       1.654  -5.502 -11.719  0.00  0.00    +0.000 A 
ATOM      6  C   UNL     1       2.445  -4.407 -12.065  0.00  0.00    +0.000 A 
ENDROOT
BRANCH   1   8
ATOM      7  C   UNL     1       3.372  -1.654 -12.660  0.00  0.00    +0.000 C 
ATOM      8  O   UNL     1       2.986  -2.642 -13.620  0.00  0.00    +0.000 OA
ENDBRANCH   1   8
BRANCH   4   9
ATOM      9  C   UNL     1      -0.237  -7.087 -12.240  0.00  0.00    +0.000 C 
ATOM     10  O   UNL     1      -1.043  -6.979 -11.319  0.00  0.00    +0.000 OA
BRANCH   9  11
ATOM     11  C   UNL     1      -0.116  -8.382 -12.971  0.00  0.00    +0.000 A 
ATOM     12  C   UNL     1       0.853  -9.266 -12.662  0.00  0.00    +0.000 A 
ATOM     13  C   UNL     1       1.004 -10.499 -13.272  0.00  0.00    +0.000 A 
ATOM     14  C   UNL     1       0.143 -10.844 -14.285  0.00  0.00    +0.000 A 
ATOM     15  C   UNL     1      -0.861  -9.956 -14.645  0.00  0.00    +0.000 A 
ATOM     16  C   UNL     1      -0.978  -8.731 -13.987  0.00  0.00    +0.000 A 
ENDBRANCH   9  11
ENDBRANCH   4   9
BRANCH   5  17
ATOM     17  O   UNL     1       1.854  -6.180 -10.551  0.00  0.00    +0.000 OA
ATOM     18  H   UNL     1       2.347  -7.039 -10.556  0.00  0.00    +0.000 HD
ENDBRANCH   5  17
TORSDOF 4
ENDMDL
MODEL 8
REMARK VINA RESULT:      -3.7      9.163     10.614
REMARK  Name = ox1_esm1_f8_ligand
REMARK  5 active torsions:
REMARK  status: ('A' for Active; 'I' for Inactive)
REMARK    1  A    between atoms: C_1  and  O_2
REMARK    2  A    between atoms: O_2  and  C_3
REMARK    3  A    between atoms: C_6  and  C_7
REMARK    4  A    between atoms: C_7  and  C_9
REMARK    5  A    between atoms: C_15  and  O_16
REMARK                            x       y       z     vdW  Elec       q    Type
REMARK                         _______ _______ _______ _____ _____    ______ ____
ROOT
ATOM      1  C   UNL     1       5.211  -5.800  -6.004  0.00  0.00    +0.000 A 
ATOM      2  C   UNL     1       4.000  -5.242  -5.596  0.00  0.00    +0.000 A 
ATOM      3  C   UNL     1       3.826  -3.865  -5.606  0.00  0.00    +0.000 A 
ATOM      4  C   UNL     1       4.841  -3.025  -6.030  0.00  0.00    +0.000 A 
ATOM      5  C   UNL     1       6.072  -3.579  -6.437  0.00  0.00    +0.000 A 
ATOM      6  C   UNL     1       6.237  -4.964  -6.418  0.00  0.00    +0.000 A 
ENDROOT
BRANCH   1   8
ATOM      7  C   UNL     1       6.099  -7.846  -6.976  0.00  0.00    +0.000 C 
ATOM      8  O   UNL     1       5.330  -7.159  -5.985  0.00  0.00    +0.000 OA
ENDBRANCH   1   8
BRANCH   4   9
ATOM      9  C   UNL     1       4.639  -1.540  -6.052  0.00  0.00    +0.000 C 
ATOM     10  O   UNL     1       4.507  -0.967  -7.130  0.00  0.00    +0.000 OA
BRANCH   9  11
ATOM     11  C   UNL     1       4.624  -0.750  -4.785  0.00  0.00    +0.000 A 
ATOM     12  C   UNL     1       3.782   0.290  -4.626  0.00  0.00    +0.000 A 
ATOM     13  C   UNL     1       3.686   1.042  -3.470  0.00  0.00    +0.000 A 
ATOM     14  C   UNL     1       4.523   0.749  -2.420  0.00  0.00    +0.000 A 
ATOM     15  C   UNL     1       5.416  -0.306  -2.547  0.00  0.00    +0.000 A 
ATOM     16  C   UNL     1       5.460  -1.043  -3.731  0.00  0.00    +0.000 A 
ENDBRANCH   9  11
ENDBRANCH   4   9
BRANCH   5  17
ATOM     17  O   UNL     1       7.081  -2.751  -6.838  0.00  0.00    +0.000 OA
ATOM     18  H   UNL     1       7.960  -3.130  -7.092  0.00  0.00    +0.000 HD
ENDBRANCH   5  17
TORSDOF 4
ENDMDL
MODEL 9
REMARK VINA RESULT:      -3.7      2.623      4.374
REMARK  Name = ox1_esm1_f8_ligand
REMARK  5 active torsions:
REMARK  status: ('A' for Active; 'I' for Inactive)
REMARK    1  A    between atoms: C_1  and  O_2
REMARK    2  A    between atoms: O_2  and  C_3
REMARK    3  A    between atoms: C_6  and  C_7
REMARK    4  A    between atoms: C_7  and  C_9
REMARK    5  A    between atoms: C_15  and  O_16
REMARK                            x       y       z     vdW  Elec       q    Type
REMARK                         _______ _______ _______ _____ _____    ______ ____
ROOT
ATOM      1  C   UNL     1       5.617  -9.259  -9.677  0.00  0.00    +0.000 A 
ATOM      2  C   UNL     1       5.162  -9.546 -10.964  0.00  0.00    +0.000 A 
ATOM      3  C   UNL     1       3.815  -9.782 -11.192  0.00  0.00    +0.000 A 
ATOM      4  C   UNL     1       2.898  -9.725 -10.156  0.00  0.00    +0.000 A 
ATOM      5  C   UNL     1       3.349  -9.443  -8.850  0.00  0.00    +0.000 A 
ATOM      6  C   UNL     1       4.707  -9.213  -8.632  0.00  0.00    +0.000 A 
ENDROOT
BRANCH   1   8
ATOM      7  C   UNL     1       7.843 -10.082  -9.138  0.00  0.00    +0.000 C 
ATOM      8  O   UNL     1       6.950  -9.026  -9.504  0.00  0.00    +0.000 OA
ENDBRANCH   1   8
BRANCH   4   9
ATOM      9  C   UNL     1       1.442  -9.966 -10.414  0.00  0.00    +0.000 C 
ATOM     10  O   UNL     1       0.892 -10.936  -9.898  0.00  0.00    +0.000 OA
BRANCH   9  11
ATOM     11  C   UNL     1       0.662  -9.060 -11.308  0.00  0.00    +0.000 A 
ATOM     12  C   UNL     1       0.351  -9.425 -12.567  0.00  0.00    +0.000 A 
ATOM     13  C   UNL     1      -0.397  -8.654 -13.438  0.00  0.00    +0.000 A 
ATOM     14  C   UNL     1      -0.827  -7.417 -13.021  0.00  0.00    +0.000 A 
ATOM     15  C   UNL     1      -0.516  -6.996 -11.736  0.00  0.00    +0.000 A 
ATOM     16  C   UNL     1       0.229  -7.820 -10.893  0.00  0.00    +0.000 A 
ENDBRANCH   9  11
ENDBRANCH   4   9
BRANCH   5  17
ATOM     17  O   UNL     1       2.450  -9.404  -7.823  0.00  0.00    +0.000 OA
ATOM     18  H   UNL     1       1.739  -8.715  -7.815  0.00  0.00    +0.000 HD
ENDBRANCH   5  17
TORSDOF 4
ENDMDL
