REMARK  Name = shuffle_control_esm0_ligand
REMARK  12 active torsions:
REMARK  status: ('A' for Active; 'I' for Inactive)
REMARK    1  A    between atoms: C_1  and  C_2
REMARK    2  A    between atoms: C_2  and  C_3
REMARK    3  A    between atoms: C_3  and  C_4
REMARK    4  A    between atoms: C_4  and  C_5
REMARK    5  A    between atoms: C_5  and  C_6
REMARK    6  A    between atoms: C_5  and  O_8
REMARK    7  A    between atoms: C_6  and  C_7
REMARK    8  A    between atoms: O_8  and  C_9
REMARK    9  A    between atoms: C_9  and  C_11
REMARK   10  A    between atoms: C_12  and  C_13
REMARK   11  A    between atoms: C_16  and  O_17
REMARK   12  A    between atoms: O_17  and  C_18
REMARK                            x       y       z     vdW  Elec       q    Type
REMARK                         _______ _______ _______ _____ _____    ______ ____
ROOT
ATOM      1  C   UNL     1       6.118   1.427   7.099  0.00  0.00    +0.000 C 
ATOM      2  O   UNL     1       5.323   2.227   6.717  0.00  0.00    +0.000 OA
ENDROOT
BRANCH   1   3
ATOM      3  C   UNL     1       5.848  -0.041   7.185  0.00  0.00    +0.000 C 
ATOM      4  C   UNL     1       5.473  -0.596   8.323  0.00  0.00    +0.000 C 
BRANCH   4   5
ATOM      5  C   UNL     1       5.312  -2.070   8.507  0.00  0.00    +0.000 A 
ATOM      6  C   UNL     1       5.917  -2.663   9.585  0.00  0.00    +0.000 A 
ATOM      7  C   UNL     1       5.825  -4.032   9.789  0.00  0.00    +0.000 A 
ATOM      8  C   UNL     1       5.110  -4.824   8.910  0.00  0.00    +0.000 A 
ATOM      9  C   UNL     1       4.487  -4.220   7.818  0.00  0.00    +0.000 A 
ATOM     10  C   UNL     1       4.581  -2.838   7.621  0.00  0.00    +0.000 A 
BRANCH   8  11
ATOM     11  O   UNL     1       5.006  -6.160   9.065  0.00  0.00    +0.000 OA
ATOM     12  C   UNL     1       5.724  -6.803  10.117  0.00  0.00    +0.000 C 
ENDBRANCH   8  11
ENDBRANCH   4   5
ENDBRANCH   1   3
BRANCH   1  13
ATOM     13  O   UNL     1       7.359   1.793   7.506  0.00  0.00    +0.000 OA
BRANCH  13  14
ATOM     14  C   UNL     1       7.754   3.155   7.631  0.00  0.00    +0.000 C 
BRANCH  14  15
ATOM     15  C   UNL     1       8.730   3.580   6.548  0.00  0.00    +0.000 C 
ATOM     16  C   UNL     1       8.184   3.654   5.151  0.00  0.00    +0.000 C 
ENDBRANCH  14  15
BRANCH  14  17
ATOM     17  C   UNL     1       8.436   3.316   8.950  0.00  0.00    +0.000 C 
BRANCH  17  18
ATOM     18  C   UNL     1       7.756   2.638  10.089  0.00  0.00    +0.000 C 
BRANCH  18  20
ATOM     19  C   UNL     1       9.549   3.608  11.622  0.00  0.00    +0.000 C 
ATOM     20  C   UNL     1       8.491   2.587  11.395  0.00  0.00    +0.000 C 
ENDBRANCH  18  20
ENDBRANCH  17  18
ENDBRANCH  14  17
ENDBRANCH  13  14
ENDBRANCH   1  13
TORSDOF 9
