MODEL 1
REMARK VINA RESULT:      -4.9      0.000      0.000
REMARK  Name = shuffle_control_esm0_ligand
REMARK  12 active torsions:
REMARK  status: ('A' for Active; 'I' for Inactive)
REMARK    1  A    between atoms: C_1  and  C_2
REMARK    2  A    between atoms: C_2  and  C_3
REMARK    3  A    between atoms: C_3  and  C_4
REMARK    4  A    between atoms: C_4  and  C_5
REMARK    5  A    between atoms: C_5  and  C_6
REMARK    6  A    between atoms: C_5  and  O_8
REMARK    7  A    between atoms: C_6  and  C_7
REMARK    8  A    between atoms: O_8  and  C_9
REMARK    9  A    between atoms: C_9  and  C_11
REMARK   10  A    between atoms: C_12  and  C_13
REMARK   11  A    between atoms: C_16  and  O_17
REMARK   12  A    between atoms: O_17  and  C_18
REMARK                            x       y       z     vdW  Elec       q    Type
REMARK                         _______ _______ _______ _____ _____    ______ ____
ROOT
ATOM      1  C   UNL     1       5.303   6.423   4.039  0.00  0.00    +0.000 C 
ATOM      2  O   UNL     1       4.887   7.487   3.702  0.00  0.00    +0.000 OA
ENDROOT
BRANCH   1   3
ATOM      3  C   UNL     1       4.479   5.388   4.735  0.00  0.00    +0.000 C 
ATOM      4  C   UNL     1       3.994   4.352   4.077  0.00  0.00    +0.000 C 
BRANCH   4   5
ATOM      5  C   UNL     1       3.060   3.354   4.683  0.00  0.00    +0.000 A 
ATOM      6  C   UNL     1       3.357   2.853   5.924  0.00  0.00    +0.000 A 
ATOM      7  C   UNL     1       2.542   1.903   6.521  0.00  0.00    +0.000 A 
ATOM      8  C   UNL     1       1.405   1.451   5.877  0.00  0.00    +0.000 A 
ATOM      9  C   UNL     1       1.098   1.968   4.618  0.00  0.00    +0.000 A 
ATOM     10  C   UNL     1       1.923   2.928   4.023  0.00  0.00    +0.000 A 
BRANCH   8  11
ATOM     11  O   UNL     1       0.592   0.520   6.417  0.00  0.00    +0.000 OA
ATOM     12  C   UNL     1      -0.607   0.155   5.736  0.00  0.00    +0.000 C 
ENDBRANCH   8  11
ENDBRANCH   4   5
ENDBRANCH   1   3
BRANCH   1  13
ATOM     13  O   UNL     1       6.592   6.060   3.822  0.00  0.00    +0.000 OA
BRANCH  13  14
ATOM     14  C   UNL     1       7.169   6.024   2.521  0.00  0.00    +0.000 C 
BRANCH  14  15
ATOM     15  C   UNL     1       6.756   4.793   1.734  0.00  0.00    +0.000 C 
ATOM     16  C   UNL     1       5.750   5.008   0.640  0.00  0.00    +0.000 C 
ENDBRANCH  14  15
BRANCH  14  17
ATOM     17  C   UNL     1       8.654   5.989   2.679  0.00  0.00    +0.000 C 
BRANCH  17  18
ATOM     18  C   UNL     1       9.349   4.996   1.812  0.00  0.00    +0.000 C 
BRANCH  18  20
ATOM     19  C   UNL     1      11.302   4.536   0.238  0.00  0.00    +0.000 C 
ATOM     20  C   UNL     1      10.371   5.522   0.849  0.00  0.00    +0.000 C 
ENDBRANCH  18  20
ENDBRANCH  17  18
ENDBRANCH  14  17
ENDBRANCH  13  14
ENDBRANCH   1  13
TORSDOF 9
ENDMDL
MODEL 2
REMARK VINA RESULT:      -4.8      1.929      7.416
REMARK  Name = shuffle_control_esm0_ligand
REMARK  12 active torsions:
REMARK  status: ('A' for Active; 'I' for Inactive)
REMARK    1  A    between atoms: C_1  and  C_2
REMARK    2  A    between atoms: C_2  and  C_3
REMARK    3  A    between atoms: C_3  and  C_4
REMARK    4  A    between atoms: C_4  and  C_5
REMARK    5  A    between atoms: C_5  and  C_6
REMARK    6  A    between atoms: C_5  and  O_8
REMARK    7  A    between atoms: C_6  and  C_7
REMARK    8  A    between atoms: O_8  and  C_9
REMARK    9  A    between atoms: C_9  and  C_11
REMARK   10  A    between atoms: C_12  and  C_13
REMARK   11  A    between atoms: C_16  and  O_17
REMARK   12  A    between atoms: O_17  and  C_18
REMARK                            x       y       z     vdW  Elec       q    Type
REMARK                         _______ _______ _______ _____ _____    ______ ____
ROOT
ATOM      1  C   UNL     1       2.347   5.294   4.816  0.00  0.00    +0.000 C 
ATOM      2  O   UNL     1       2.045   6.354   5.267  0.00  0.00    +0.000 OA
ENDROOT
BRANCH   1   3
ATOM      3  C   UNL     1       3.610   5.040   4.059  0.00  0.00    +0.000 C 
ATOM      4  C   UNL     1       4.707   5.727   4.320  0.00  0.00    +0.000 C 
BRANCH   4   5
ATOM      5  C   UNL     1       5.962   5.612   3.517  0.00  0.00    +0.000 A 
ATOM      6  C   UNL     1       5.904   4.978   2.302  0.00  0.00    +0.000 A 
ATOM      7  C   UNL     1       7.044   4.817   1.528  0.00  0.00    +0.000 A 
ATOM      8  C   UNL     1       8.261   5.304   1.966  0.00  0.00    +0.000 A 
ATOM      9  C   UNL     1       8.319   5.956   3.197  0.00  0.00    +0.000 A 
ATOM     10  C   UNL     1       7.165   6.118   3.970  0.00  0.00    +0.000 A 
BRANCH   8  11
ATOM     11  O   UNL     1       9.395   5.157   1.249  0.00  0.00    +0.000 OA
ATOM     12  C   UNL     1       9.506   5.785  -0.027  0.00  0.00    +0.000 C 
ENDBRANCH   8  11
ENDBRANCH   4   5
ENDBRANCH   1   3
BRANCH   1  13
ATOM     13  O   UNL     1       1.544   4.209   4.948  0.00  0.00    +0.000 OA
BRANCH  13  14
ATOM     14  C   UNL     1       1.930   2.912   4.503  0.00  0.00    +0.000 C 
BRANCH  14  15
ATOM     15  C   UNL     1       0.871   2.256   3.635  0.00  0.00    +0.000 C 
ATOM     16  C   UNL     1       0.164   3.149   2.656  0.00  0.00    +0.000 C 
ENDBRANCH  14  15
BRANCH  14  17
ATOM     17  C   UNL     1       2.129   2.054   5.709  0.00  0.00    +0.000 C 
BRANCH  17  18
ATOM     18  C   UNL     1       3.448   2.222   6.381  0.00  0.00    +0.000 C 
BRANCH  18  20
ATOM     19  C   UNL     1       3.832   4.224   7.914  0.00  0.00    +0.000 C 
ATOM     20  C   UNL     1       3.444   2.796   7.767  0.00  0.00    +0.000 C 
ENDBRANCH  18  20
ENDBRANCH  17  18
ENDBRANCH  14  17
ENDBRANCH  13  14
ENDBRANCH   1  13
TORSDOF 9
ENDMDL
MODEL 3
REMARK VINA RESULT:      -4.7      2.058      7.492
REMARK  Name = shuffle_control_esm0_ligand
REMARK  12 active torsions:
REMARK  status: ('A' for Active; 'I' for Inactive)
REMARK    1  A    between atoms: C_1  and  C_2
REMARK    2  A    between atoms: C_2  and  C_3
REMARK    3  A    between atoms: C_3  and  C_4
REMARK    4  A    between atoms: C_4  and  C_5
REMARK    5  A    between atoms: C_5  and  C_6
REMARK    6  A    between atoms: C_5  and  O_8
REMARK    7  A    between atoms: C_6  and  C_7
REMARK    8  A    between atoms: O_8  and  C_9
REMARK    9  A    between atoms: C_9  and  C_11
REMARK   10  A    between atoms: C_12  and  C_13
REMARK   11  A    between atoms: C_16  and  O_17
REMARK   12  A    between atoms: O_17  and  C_18
REMARK                            x       y       z     vdW  Elec       q    Type
REMARK                         _______ _______ _______ _____ _____    ______ ____
ROOT
ATOM      1  C   UNL     1       2.596   5.451   3.366  0.00  0.00    +0.000 C 
ATOM      2  O   UNL     1       1.952   6.405   3.059  0.00  0.00    +0.000 OA
ENDROOT
BRANCH   1   3
ATOM      3  C   UNL     1       3.952   5.148   2.814  0.00  0.00    +0.000 C 
ATOM      4  C   UNL     1       5.038   5.659   3.365  0.00  0.00    +0.000 C 
BRANCH   4   5
ATOM      5  C   UNL     1       6.407   5.500   2.789  0.00  0.00    +0.000 A 
ATOM      6  C   UNL     1       7.482   5.895   3.542  0.00  0.00    +0.000 A 
ATOM      7  C   UNL     1       8.774   5.797   3.046  0.00  0.00    +0.000 A 
ATOM      8  C   UNL     1       9.001   5.288   1.781  0.00  0.00    +0.000 A 
ATOM      9  C   UNL     1       7.908   4.878   1.017  0.00  0.00    +0.000 A 
ATOM     10  C   UNL     1       6.609   4.976   1.526  0.00  0.00    +0.000 A 
BRANCH   8  11
ATOM     11  O   UNL     1      10.240   5.187   1.256  0.00  0.00    +0.000 OA
ATOM     12  C   UNL     1      10.399   4.722  -0.083  0.00  0.00    +0.000 C 
ENDBRANCH   8  11
ENDBRANCH   4   5
ENDBRANCH   1   3
BRANCH   1  13
ATOM     13  O   UNL     1       2.135   4.536   4.254  0.00  0.00    +0.000 OA
BRANCH  13  14
ATOM     14  C   UNL     1       2.400   3.143   4.126  0.00  0.00    +0.000 C 
BRANCH  14  15
ATOM     15  C   UNL     1       1.136   2.326   3.924  0.00  0.00    +0.000 C 
ATOM     16  C   UNL     1       0.151   2.859   2.924  0.00  0.00    +0.000 C 
ENDBRANCH  14  15
BRANCH  14  17
ATOM     17  C   UNL     1       3.046   2.680   5.391  0.00  0.00    +0.000 C 
BRANCH  17  18
ATOM     18  C   UNL     1       3.529   3.775   6.279  0.00  0.00    +0.000 C 
BRANCH  18  20
ATOM     19  C   UNL     1       3.629   4.648   8.674  0.00  0.00    +0.000 C 
ATOM     20  C   UNL     1       3.604   3.483   7.748  0.00  0.00    +0.000 C 
ENDBRANCH  18  20
ENDBRANCH  17  18
ENDBRANCH  14  17
ENDBRANCH  13  14
ENDBRANCH   1  13
TORSDOF 9
ENDMDL
MODEL 4
REMARK VINA RESULT:      -4.7      2.106      2.921
REMARK  Name = shuffle_control_esm0_ligand
REMARK  12 active torsions:
REMARK  status: ('A' for Active; 'I' for Inactive)
REMARK    1  A    between atoms: C_1  and  C_2
REMARK    2  A    between atoms: C_2  and  C_3
REMARK    3  A    between atoms: C_3  and  C_4
REMARK    4  A    between atoms: C_4  and  C_5
REMARK    5  A    between atoms: C_5  and  C_6
REMARK    6  A    between atoms: C_5  and  O_8
REMARK    7  A    between atoms: C_6  and  C_7
REMARK    8  A    between atoms: O_8  and  C_9
REMARK    9  A    between atoms: C_9  and  C_11
REMARK   10  A    between atoms: C_12  and  C_13
REMARK   11  A    between atoms: C_16  and  O_17
REMARK   12  A    between atoms: O_17  and  C_18
REMARK                            x       y       z     vdW  Elec       q    Type
REMARK                         _______ _______ _______ _____ _____    ______ ____
ROOT
ATOM      1  C   UNL     1       3.484   5.689   2.643  0.00  0.00    +0.000 C 
ATOM      2  O   UNL     1       3.191   6.838   2.534  0.00  0.00    +0.000 OA
ENDROOT
BRANCH   1   3
ATOM      3  C   UNL     1       3.129   4.847   3.827  0.00  0.00    +0.000 C 
ATOM      4  C   UNL     1       3.902   4.822   4.897  0.00  0.00    +0.000 C 
BRANCH   4   5
ATOM      5  C   UNL     1       3.673   3.909   6.058  0.00  0.00    +0.000 A 
ATOM      6  C   UNL     1       3.732   4.434   7.323  0.00  0.00    +0.000 A 
ATOM      7  C   UNL     1       3.556   3.628   8.438  0.00  0.00    +0.000 A 
ATOM      8  C   UNL     1       3.306   2.276   8.291  0.00  0.00    +0.000 A 
ATOM      9  C   UNL     1       3.237   1.743   7.004  0.00  0.00    +0.000 A 
ATOM     10  C   UNL     1       3.412   2.563   5.884  0.00  0.00    +0.000 A 
BRANCH   8  11
ATOM     11  O   UNL     1       3.141   1.454   9.348  0.00  0.00    +0.000 OA
ATOM     12  C   UNL     1       4.007   1.578  10.475  0.00  0.00    +0.000 C 
ENDBRANCH   8  11
ENDBRANCH   4   5
ENDBRANCH   1   3
BRANCH   1  13
ATOM     13  O   UNL     1       4.188   5.037   1.684  0.00  0.00    +0.000 OA
BRANCH  13  14
ATOM     14  C   UNL     1       5.492   5.443   1.282  0.00  0.00    +0.000 C 
BRANCH  14  15
ATOM     15  C   UNL     1       5.840   4.977  -0.120  0.00  0.00    +0.000 C 
ATOM     16  C   UNL     1       6.921   5.743  -0.828  0.00  0.00    +0.000 C 
ENDBRANCH  14  15
BRANCH  14  17
ATOM     17  C   UNL     1       6.475   4.830   2.225  0.00  0.00    +0.000 C 
BRANCH  17  18
ATOM     18  C   UNL     1       7.158   5.798   3.128  0.00  0.00    +0.000 C 
BRANCH  18  20
ATOM     19  C   UNL     1       9.346   5.197   1.963  0.00  0.00    +0.000 C 
ATOM     20  C   UNL     1       8.657   5.779   3.146  0.00  0.00    +0.000 C 
ENDBRANCH  18  20
ENDBRANCH  17  18
ENDBRANCH  14  17
ENDBRANCH  13  14
ENDBRANCH   1  13
TORSDOF 9
ENDMDL
MODEL 5
REMARK VINA RESULT:      -4.7      2.091      2.800
REMARK  Name = shuffle_control_esm0_ligand
REMARK  12 active torsions:
REMARK  status: ('A' for Active; 'I' for Inactive)
REMARK    1  A    between atoms: C_1  and  C_2
REMARK    2  A    between atoms: C_2  and  C_3
REMARK    3  A    between atoms: C_3  and  C_4
REMARK    4  A    between atoms: C_4  and  C_5
REMARK    5  A    between atoms: C_5  and  C_6
REMARK    6  A    between atoms: C_5  and  O_8
REMARK    7  A    between atoms: C_6  and  C_7
REMARK    8  A    between atoms: O_8  and  C_9
REMARK    9  A    between atoms: C_9  and  C_11
REMARK   10  A    between atoms: C_12  and  C_13
REMARK   11  A    between atoms: C_16  and  O_17
REMARK   12  A    between atoms: O_17  and  C_18
REMARK                            x       y       z     vdW  Elec       q    Type
REMARK                         _______ _______ _______ _____ _____    ______ ____
ROOT
ATOM      1  C   UNL     1       3.912   5.013   2.880  0.00  0.00    +0.000 C 
ATOM      2  O   UNL     1       3.147   5.831   2.475  0.00  0.00    +0.000 OA
ENDROOT
BRANCH   1   3
ATOM      3  C   UNL     1       3.634   4.114   4.041  0.00  0.00    +0.000 C 
ATOM      4  C   UNL     1       3.792   4.539   5.281  0.00  0.00    +0.000 C 
BRANCH   4   5
ATOM      5  C   UNL     1       3.655   3.656   6.479  0.00  0.00    +0.000 A 
ATOM      6  C   UNL     1       3.412   2.322   6.281  0.00  0.00    +0.000 A 
ATOM      7  C   UNL     1       3.248   1.461   7.357  0.00  0.00    +0.000 A 
ATOM      8  C   UNL     1       3.336   1.935   8.652  0.00  0.00    +0.000 A 
ATOM      9  C   UNL     1       3.591   3.292   8.854  0.00  0.00    +0.000 A 
ATOM     10  C   UNL     1       3.760   4.153   7.764  0.00  0.00    +0.000 A 
BRANCH   8  11
ATOM     11  O   UNL     1       3.170   1.135   9.725  0.00  0.00    +0.000 OA
ATOM     12  C   UNL     1       2.329  -0.013   9.622  0.00  0.00    +0.000 C 
ENDBRANCH   8  11
ENDBRANCH   4   5
ENDBRANCH   1   3
BRANCH   1  13
ATOM     13  O   UNL     1       5.130   4.833   2.311  0.00  0.00    +0.000 OA
BRANCH  13  14
ATOM     14  C   UNL     1       5.581   5.606   1.204  0.00  0.00    +0.000 C 
BRANCH  14  15
ATOM     15  C   UNL     1       5.852   4.758  -0.026  0.00  0.00    +0.000 C 
ATOM     16  C   UNL     1       6.315   5.491  -1.252  0.00  0.00    +0.000 C 
ENDBRANCH  14  15
BRANCH  14  17
ATOM     17  C   UNL     1       6.863   6.266   1.596  0.00  0.00    +0.000 C 
BRANCH  17  18
ATOM     18  C   UNL     1       7.581   5.610   2.724  0.00  0.00    +0.000 C 
BRANCH  18  20
ATOM     19  C   UNL     1       9.468   5.133   1.076  0.00  0.00    +0.000 C 
ATOM     20  C   UNL     1       9.004   5.202   2.488  0.00  0.00    +0.000 C 
ENDBRANCH  18  20
ENDBRANCH  17  18
ENDBRANCH  14  17
ENDBRANCH  13  14
ENDBRANCH   1  13
TORSDOF 9
ENDMDL
MODEL 6
REMARK VINA RESULT:      -4.6      1.182      2.080
REMARK  Name = shuffle_control_esm0_ligand
REMARK  12 active torsions:
REMARK  status: ('A' for Active; 'I' for Inactive)
REMARK    1  A    between atoms: C_1  and  C_2
REMARK    2  A    between atoms: C_2  and  C_3
REMARK    3  A    between atoms: C_3  and  C_4
REMARK    4  A    between atoms: C_4  and  C_5
REMARK    5  A    between atoms: C_5  and  C_6
REMARK    6  A    between atoms: C_5  and  O_8
REMARK    7  A    between atoms: C_6  and  C_7
REMARK    8  A    between atoms: O_8  and  C_9
REMARK    9  A    between atoms: C_9  and  C_11
REMARK   10  A    between atoms: C_12  and  C_13
REMARK   11  A    between atoms: C_16  and  O_17
REMARK   12  A    between atoms: O_17  and  C_18
REMARK                            x       y       z     vdW  Elec       q    Type
REMARK                         _______ _______ _______ _____ _____    ______ ____
ROOT
ATOM      1  C   UNL     1       5.094   5.952   2.542  0.00  0.00    +0.000 C 
ATOM      2  O   UNL     1       4.443   6.385   1.644  0.00  0.00    +0.000 OA
ENDROOT
BRANCH   1   3
ATOM      3  C   UNL     1       4.628   4.872   3.464  0.00  0.00    +0.000 C 
ATOM      4  C   UNL     1       3.417   4.358   3.350  0.00  0.00    +0.000 C 
BRANCH   4   5
ATOM      5  C   UNL     1       2.845   3.371   4.315  0.00  0.00    +0.000 A 
ATOM      6  C   UNL     1       1.662   2.756   3.997  0.00  0.00    +0.000 A 
ATOM      7  C   UNL     1       1.072   1.853   4.869  0.00  0.00    +0.000 A 
ATOM      8  C   UNL     1       1.674   1.550   6.076  0.00  0.00    +0.000 A 
ATOM      9  C   UNL     1       2.882   2.169   6.396  0.00  0.00    +0.000 A 
ATOM     10  C   UNL     1       3.474   3.076   5.510  0.00  0.00    +0.000 A 
BRANCH   8  11
ATOM     11  O   UNL     1       1.128   0.688   6.957  0.00  0.00    +0.000 OA
ATOM     12  C   UNL     1       1.761   0.477   8.218  0.00  0.00    +0.000 C 
ENDBRANCH   8  11
ENDBRANCH   4   5
ENDBRANCH   1   3
BRANCH   1  13
ATOM     13  O   UNL     1       6.337   6.421   2.812  0.00  0.00    +0.000 OA
BRANCH  13  14
ATOM     14  C   UNL     1       7.441   5.561   3.076  0.00  0.00    +0.000 C 
BRANCH  14  15
ATOM     15  C   UNL     1       8.539   6.249   3.868  0.00  0.00    +0.000 C 
ATOM     16  C   UNL     1       8.417   7.738   4.021  0.00  0.00    +0.000 C 
ENDBRANCH  14  15
BRANCH  14  17
ATOM     17  C   UNL     1       8.018   5.139   1.765  0.00  0.00    +0.000 C 
BRANCH  17  18
ATOM     18  C   UNL     1       9.503   5.018   1.749  0.00  0.00    +0.000 C 
BRANCH  18  20
ATOM     19  C   UNL     1      11.556   4.404   0.366  0.00  0.00    +0.000 C 
ATOM     20  C   UNL     1      10.171   4.947   0.409  0.00  0.00    +0.000 C 
ENDBRANCH  18  20
ENDBRANCH  17  18
ENDBRANCH  14  17
ENDBRANCH  13  14
ENDBRANCH   1  13
TORSDOF 9
ENDMDL
MODEL 7
REMARK VINA RESULT:      -4.6      1.055      2.921
REMARK  Name = shuffle_control_esm0_ligand
REMARK  12 active torsions:
REMARK  status: ('A' for Active; 'I' for Inactive)
REMARK    1  A    between atoms: C_1  and  C_2
REMARK    2  A    between atoms: C_2  and  C_3
REMARK    3  A    between atoms: C_3  and  C_4
REMARK    4  A    between atoms: C_4  and  C_5
REMARK    5  A    between atoms: C_5  and  C_6
REMARK    6  A    between atoms: C_5  and  O_8
REMARK    7  A    between atoms: C_6  and  C_7
REMARK    8  A    between atoms: O_8  and  C_9
REMARK    9  A    between atoms: C_9  and  C_11
REMARK   10  A    between atoms: C_12  and  C_13
REMARK   11  A    between atoms: C_16  and  O_17
REMARK   12  A    between atoms: O_17  and  C_18
REMARK                            x       y       z     vdW  Elec       q    Type
REMARK                         _______ _______ _______ _____ _____    ______ ____
ROOT
ATOM      1  C   UNL     1       6.006   6.927   3.613  0.00  0.00    +0.000 C 
ATOM      2  O   UNL     1       5.771   8.022   4.018  0.00  0.00    +0.000 OA
ENDROOT
BRANCH   1   3
ATOM      3  C   UNL     1       5.373   5.685   4.154  0.00  0.00    +0.000 C 
ATOM      4  C   UNL     1       4.104   5.410   3.914  0.00  0.00    +0.000 C 
BRANCH   4   5
ATOM      5  C   UNL     1       3.380   4.256   4.528  0.00  0.00    +0.000 A 
ATOM      6  C   UNL     1       2.422   3.617   3.785  0.00  0.00    +0.000 A 
ATOM      7  C   UNL     1       1.699   2.558   4.315  0.00  0.00    +0.000 A 
ATOM      8  C   UNL     1       1.940   2.122   5.605  0.00  0.00    +0.000 A 
ATOM      9  C   UNL     1       2.921   2.767   6.358  0.00  0.00    +0.000 A 
ATOM     10  C   UNL     1       3.649   3.831   5.815  0.00  0.00    +0.000 A 
BRANCH   8  11
ATOM     11  O   UNL     1       1.251   1.105   6.162  0.00  0.00    +0.000 OA
ATOM     12  C   UNL     1       0.083   0.609   5.512  0.00  0.00    +0.000 C 
ENDBRANCH   8  11
ENDBRANCH   4   5
ENDBRANCH   1   3
BRANCH   1  13
ATOM     13  O   UNL     1       6.894   6.712   2.610  0.00  0.00    +0.000 OA
BRANCH  13  14
ATOM     14  C   UNL     1       7.385   5.416   2.286  0.00  0.00    +0.000 C 
BRANCH  14  15
ATOM     15  C   UNL     1       8.878   5.281   2.531  0.00  0.00    +0.000 C 
ATOM     16  C   UNL     1       9.757   5.309   1.314  0.00  0.00    +0.000 C 
ENDBRANCH  14  15
BRANCH  14  17
ATOM     17  C   UNL     1       7.137   5.181   0.832  0.00  0.00    +0.000 C 
BRANCH  17  18
ATOM     18  C   UNL     1       5.718   4.891   0.482  0.00  0.00    +0.000 C 
BRANCH  18  20
ATOM     19  C   UNL     1       3.805   6.577   0.423  0.00  0.00    +0.000 C 
ATOM     20  C   UNL     1       4.966   5.952  -0.265  0.00  0.00    +0.000 C 
ENDBRANCH  18  20
ENDBRANCH  17  18
ENDBRANCH  14  17
ENDBRANCH  13  14
ENDBRANCH   1  13
TORSDOF 9
ENDMDL
MODEL 8
REMARK VINA RESULT:      -4.6      1.709      2.648
REMARK  Name = shuffle_control_esm0_ligand
REMARK  12 active torsions:
REMARK  status: ('A' for Active; 'I' for Inactive)
REMARK    1  A    between atoms: C_1  and  C_2
REMARK    2  A    between atoms: C_2  and  C_3
REMARK    3  A    between atoms: C_3  and  C_4
REMARK    4  A    between atoms: C_4  and  C_5
REMARK    5  A    between atoms: C_5  and  C_6
REMARK    6  A    between atoms: C_5  and  O_8
REMARK    7  A    between atoms: C_6  and  C_7
REMARK    8  A    between atoms: O_8  and  C_9
REMARK    9  A    between atoms: C_9  and  C_11
REMARK   10  A    between atoms: C_12  and  C_13
REMARK   11  A    between atoms: C_16  and  O_17
REMARK   12  A    between atoms: O_17  and  C_18
REMARK                            x       y       z     vdW  Elec       q    Type
REMARK                         _______ _______ _______ _____ _____    ______ ____
ROOT
ATOM      1  C   UNL     1       4.861   6.605   3.462  0.00  0.00    +0.000 C 
ATOM      2  O   UNL     1       4.243   7.621   3.528  0.00  0.00    +0.000 OA
ENDROOT
BRANCH   1   3
ATOM      3  C   UNL     1       4.493   5.357   4.198  0.00  0.00    +0.000 C 
ATOM      4  C   UNL     1       4.005   5.412   5.424  0.00  0.00    +0.000 C 
BRANCH   4   5
ATOM      5  C   UNL     1       3.738   4.202   6.259  0.00  0.00    +0.000 A 
ATOM      6  C   UNL     1       3.420   3.028   5.626  0.00  0.00    +0.000 A 
ATOM      7  C   UNL     1       3.135   1.882   6.352  0.00  0.00    +0.000 A 
ATOM      8  C   UNL     1       3.176   1.900   7.734  0.00  0.00    +0.000 A 
ATOM      9  C   UNL     1       3.508   3.091   8.379  0.00  0.00    +0.000 A 
ATOM     10  C   UNL     1       3.799   4.243   7.639  0.00  0.00    +0.000 A 
BRANCH   8  11
ATOM     11  O   UNL     1       2.894   0.811   8.478  0.00  0.00    +0.000 OA
ATOM     12  C   UNL     1       3.927  -0.130   8.767  0.00  0.00    +0.000 C 
ENDBRANCH   8  11
ENDBRANCH   4   5
ENDBRANCH   1   3
BRANCH   1  13
ATOM     13  O   UNL     1       5.980   6.498   2.703  0.00  0.00    +0.000 OA
BRANCH  13  14
ATOM     14  C   UNL     1       7.182   5.911   3.189  0.00  0.00    +0.000 C 
BRANCH  14  15
ATOM     15  C   UNL     1       8.204   6.948   3.622  0.00  0.00    +0.000 C 
ATOM     16  C   UNL     1       8.192   7.329   5.074  0.00  0.00    +0.000 C 
ENDBRANCH  14  15
BRANCH  14  17
ATOM     17  C   UNL     1       7.784   5.111   2.080  0.00  0.00    +0.000 C 
BRANCH  17  18
ATOM     18  C   UNL     1       9.271   5.158   2.015  0.00  0.00    +0.000 C 
BRANCH  18  20
ATOM     19  C   UNL     1      11.168   4.404   0.486  0.00  0.00    +0.000 C 
ATOM     20  C   UNL     1       9.899   5.162   0.654  0.00  0.00    +0.000 C 
ENDBRANCH  18  20
ENDBRANCH  17  18
ENDBRANCH  14  17
ENDBRANCH  13  14
ENDBRANCH   1  13
TORSDOF 9
ENDMDL
MODEL 9
REMARK VINA RESULT:      -4.5      1.747      2.651
REMARK  Name = shuffle_control_esm0_ligand
REMARK  12 active torsions:
REMARK  status: ('A' for Active; 'I' for Inactive)
REMARK    1  A    between atoms: C_1  and  C_2
REMARK    2  A    between atoms: C_2  and  C_3
REMARK    3  A    between atoms: C_3  and  C_4
REMARK    4  A    between atoms: C_4  and  C_5
REMARK    5  A    between atoms: C_5  and  C_6
REMARK    6  A    between atoms: C_5  and  O_8
REMARK    7  A    between atoms: C_6  and  C_7
REMARK    8  A    between atoms: O_8  and  C_9
REMARK    9  A    between atoms: C_9  and  C_11
REMARK   10  A    between atoms: C_12  and  C_13
REMARK   11  A    between atoms: C_16  and  O_17
REMARK   12  A    between atoms: O_17  and  C_18
REMARK                            x       y       z     vdW  Elec       q    Type
REMARK                         _______ _______ _______ _____ _____    ______ ____
ROOT
ATOM      1  C   UNL     1       5.099   5.522   2.636  0.00  0.00    +0.000 C 
ATOM      2  O   UNL     1       5.052   6.208   1.664  0.00  0.00    +0.000 OA
ENDROOT
BRANCH   1   3
ATOM      3  C   UNL     1       3.953   4.701   3.133  0.00  0.00    +0.000 C 
ATOM      4  C   UNL     1       4.025   4.066   4.289  0.00  0.00    +0.000 C 
BRANCH   4   5
ATOM      5  C   UNL     1       2.969   3.130   4.781  0.00  0.00    +0.000 A 
ATOM      6  C   UNL     1       3.126   2.563   6.019  0.00  0.00    +0.000 A 
ATOM      7  C   UNL     1       2.192   1.665   6.515  0.00  0.00    +0.000 A 
ATOM      8  C   UNL     1       1.077   1.333   5.769  0.00  0.00    +0.000 A 
ATOM      9  C   UNL     1       0.912   1.917   4.513  0.00  0.00    +0.000 A 
ATOM     10  C   UNL     1       1.856   2.824   4.022  0.00  0.00    +0.000 A 
BRANCH   8  11
ATOM     11  O   UNL     1       0.151   0.455   6.208  0.00  0.00    +0.000 OA
ATOM     12  C   UNL     1      -1.226   0.680   5.912  0.00  0.00    +0.000 C 
ENDBRANCH   8  11
ENDBRANCH   4   5
ENDBRANCH   1   3
BRANCH   1  13
ATOM     13  O   UNL     1       6.221   5.435   3.394  0.00  0.00    +0.000 OA
BRANCH  13  14
ATOM     14  C   UNL     1       7.336   6.302   3.214  0.00  0.00    +0.000 C 
BRANCH  14  15
ATOM     15  C   UNL     1       8.650   5.547   3.119  0.00  0.00    +0.000 C 
ATOM     16  C   UNL     1       9.136   5.227   1.735  0.00  0.00    +0.000 C 
ENDBRANCH  14  15
BRANCH  14  17
ATOM     17  C   UNL     1       7.412   7.204   4.402  0.00  0.00    +0.000 C 
BRANCH  17  18
ATOM     18  C   UNL     1       8.795   7.568   4.819  0.00  0.00    +0.000 C 
BRANCH  18  20
ATOM     19  C   UNL     1      10.205   6.787   6.796  0.00  0.00    +0.000 C 
ATOM     20  C   UNL     1       9.077   7.616   6.291  0.00  0.00    +0.000 C 
ENDBRANCH  18  20
ENDBRANCH  17  18
ENDBRANCH  14  17
ENDBRANCH  13  14
ENDBRANCH   1  13
TORSDOF 9
ENDMDL
