REMARK  Name = ox3_orig_f8_ligand
REMARK  5 active torsions:
REMARK  status: ('A' for Active; 'I' for Inactive)
REMARK    1  A    between atoms: C_1  and  O_2
REMARK    2  A    between atoms: O_2  and  C_3
REMARK    3  A    between atoms: C_6  and  C_7
REMARK    4  A    between atoms: C_7  and  C_9
REMARK    5  A    between atoms: C_15  and  O_16
REMARK                            x       y       z     vdW  Elec       q    Type
REMARK                         _______ _______ _______ _____ _____    ______ ____
ROOT
ATOM      1  C   UNL     1      -1.611  -4.253   0.542  0.00  0.00    +0.000 A 
ATOM      2  C   UNL     1      -1.758  -3.201   1.448  0.00  0.00    +0.000 A 
ATOM      3  C   UNL     1      -1.056  -2.021   1.260  0.00  0.00    +0.000 A 
ATOM      4  C   UNL     1      -0.205  -1.873   0.169  0.00  0.00    +0.000 A 
ATOM      5  C   UNL     1      -0.058  -2.934  -0.724  0.00  0.00    +0.000 A 
ATOM      6  C   UNL     1      -0.763  -4.115  -0.527  0.00  0.00    +0.000 A 
ENDROOT
BRANCH   1   8
ATOM      7  C   UNL     1      -3.091  -5.681   1.834  0.00  0.00    +0.000 C 
ATOM      8  O   UNL     1      -2.285  -5.442   0.680  0.00  0.00    +0.000 OA
ENDBRANCH   1   8
BRANCH   4   9
ATOM      9  C   UNL     1       0.570  -0.603  -0.042  0.00  0.00    +0.000 C 
ATOM     10  O   UNL     1       1.373  -0.567  -0.944  0.00  0.00    +0.000 OA
BRANCH   9  11
ATOM     11  C   UNL     1       0.411   0.584   0.834  0.00  0.00    +0.000 A 
ATOM     12  C   UNL     1      -0.842   1.096   1.141  0.00  0.00    +0.000 A 
ATOM     13  C   UNL     1      -0.956   2.225   1.931  0.00  0.00    +0.000 A 
ATOM     14  C   UNL     1       0.163   2.830   2.468  0.00  0.00    +0.000 A 
ATOM     15  C   UNL     1       1.418   2.336   2.155  0.00  0.00    +0.000 A 
ATOM     16  C   UNL     1       1.550   1.225   1.321  0.00  0.00    +0.000 A 
ENDBRANCH   9  11
ENDBRANCH   4   9
BRANCH   5  17
ATOM     17  O   UNL     1       0.792  -2.807  -1.782  0.00  0.00    +0.000 OA
ATOM     18  H   UNL     1       0.902  -3.555  -2.421  0.00  0.00    +0.000 HD
ENDBRANCH   5  17
TORSDOF 4
