REMARK  Name = /Users/cafierom/python_mac/peptidebuilder/runs/oxybenzone/dock/ox3_orig_f8/ox3_orig_f8_protein.pdb
REMARK                            x       y       z     vdW  Elec       q    Type
REMARK                         _______ _______ _______ _____ _____    ______ ____
ATOM      1 N    ASP A   1       0.010  -6.966   7.719  0.00  0.00    +0.000 NA
ATOM      2 CA   ASP A   1      -0.872  -6.247   6.801  0.00  0.00    +0.000 C 
ATOM      3 C    ASP A   1      -0.166  -5.014   6.271  0.00  0.00    +0.000 C 
ATOM      4 O    ASP A   1       0.741  -4.488   6.909  0.00  0.00    +0.000 OA
ATOM      5 CB   ASP A   1      -2.176  -5.841   7.480  0.00  0.00    +0.000 C 
ATOM      6 CG   ASP A   1      -3.071  -7.027   7.757  0.00  0.00    +0.000 C 
ATOM      7 OD1  ASP A   1      -2.777  -8.140   7.288  0.00  0.00    +0.000 OA
ATOM      8 OD2  ASP A   1      -4.067  -6.840   8.484  0.00  0.00    +0.000 OA
ATOM      9 N    GLY A   2      -0.601  -4.578   5.115  0.00  0.00    +0.000 N 
ATOM     10 CA   GLY A   2       0.005  -3.423   4.480  0.00  0.00    +0.000 C 
ATOM     11 C    GLY A   2       1.195  -3.831   3.640  0.00  0.00    +0.000 C 
ATOM     12 O    GLY A   2       1.555  -4.995   3.562  0.00  0.00    +0.000 OA
ATOM     13 N    GLY A   3       1.784  -2.839   3.006  0.00  0.00    +0.000 N 
ATOM     14 CA   GLY A   3       2.931  -3.095   2.160  0.00  0.00    +0.000 C 
ATOM     15 C    GLY A   3       3.587  -1.794   1.781  0.00  0.00    +0.000 C 
ATOM     16 O    GLY A   3       3.123  -0.716   2.145  0.00  0.00    +0.000 OA
ATOM     17 N    GLU A   4       4.681  -1.906   1.057  0.00  0.00    +0.000 N 
ATOM     18 CA   GLU A   4       5.456  -0.751   0.666  0.00  0.00    +0.000 C 
ATOM     19 C    GLU A   4       4.843  -0.060  -0.541  0.00  0.00    +0.000 C 
ATOM     20 O    GLU A   4       4.238  -0.705  -1.387  0.00  0.00    +0.000 OA
ATOM     21 CB   GLU A   4       6.880  -1.177   0.318  0.00  0.00    +0.000 C 
ATOM     22 CG   GLU A   4       7.621  -1.832   1.466  0.00  0.00    +0.000 C 
ATOM     23 CD   GLU A   4       9.002  -2.300   1.068  0.00  0.00    +0.000 C 
ATOM     24 OE1  GLU A   4       9.174  -2.740  -0.077  0.00  0.00    +0.000 OA
ATOM     25 OE2  GLU A   4       9.907  -2.234   1.907  0.00  0.00    +0.000 OA
ATOM     26 N    GLY A   5       5.043   1.241  -0.614  0.00  0.00    +0.000 N 
ATOM     27 CA   GLY A   5       4.735   1.999  -1.804  0.00  0.00    +0.000 C 
ATOM     28 C    GLY A   5       3.496   2.849  -1.700  0.00  0.00    +0.000 C 
ATOM     29 O    GLY A   5       2.921   3.027  -0.629  0.00  0.00    +0.000 OA
ATOM     30 N    GLY A   6       3.120   3.403  -2.848  0.00  0.00    +0.000 N 
ATOM     31 CA   GLY A   6       2.009   4.324  -2.929  0.00  0.00    +0.000 C 
ATOM     32 C    GLY A   6       2.456   5.742  -2.648  0.00  0.00    +0.000 C 
ATOM     33 O    GLY A   6       3.445   5.978  -1.959  0.00  0.00    +0.000 OA
ATOM     34 N    ILE A   7       1.699   6.700  -3.171  0.00  0.00    +0.000 N 
ATOM     35 CA   ILE A   7       1.998   8.099  -2.908  0.00  0.00    +0.000 C 
ATOM     36 C    ILE A   7       1.811   8.343  -1.413  0.00  0.00    +0.000 C 
ATOM     37 O    ILE A   7       0.770   8.024  -0.853  0.00  0.00    +0.000 OA
ATOM     38 CB   ILE A   7       1.087   9.023  -3.727  0.00  0.00    +0.000 C 
ATOM     39 CG1  ILE A   7       1.234   8.747  -5.236  0.00  0.00    +0.000 C 
ATOM     40 CG2  ILE A   7       1.375  10.474  -3.402  0.00  0.00    +0.000 C 
ATOM     41 CD1  ILE A   7       2.610   9.005  -5.788  0.00  0.00    +0.000 C 
ATOM     42 N    GLY A   8       2.847   8.878  -0.778  0.00  0.00    +0.000 N 
ATOM     43 CA   GLY A   8       2.825   9.097   0.659  0.00  0.00    +0.000 C 
ATOM     44 C    GLY A   8       3.610   8.059   1.426  0.00  0.00    +0.000 C 
ATOM     45 O    GLY A   8       3.933   8.283   2.591  0.00  0.00    +0.000 OA
ATOM     46 N    GLY A   9       3.917   6.948   0.812  0.00  0.00    +0.000 N 
ATOM     47 CA   GLY A   9       4.771   5.935   1.405  0.00  0.00    +0.000 C 
ATOM     48 C    GLY A   9       4.166   5.237   2.608  0.00  0.00    +0.000 C 
ATOM     49 O    GLY A   9       2.992   5.393   2.925  0.00  0.00    +0.000 OA
ATOM     50 N    GLY A  10       4.991   4.423   3.261  0.00  0.00    +0.000 N 
ATOM     51 CA   GLY A  10       4.598   3.699   4.453  0.00  0.00    +0.000 C 
ATOM     52 C    GLY A  10       4.230   2.262   4.155  0.00  0.00    +0.000 C 
ATOM     53 O    GLY A  10       4.309   1.799   3.024  0.00  0.00    +0.000 OA
ATOM     54 N    SER A  11       3.853   1.540   5.195  0.00  0.00    +0.000 N 
ATOM     55 CA   SER A  11       3.546   0.124   5.050  0.00  0.00    +0.000 C 
ATOM     56 C    SER A  11       2.499  -0.376   6.033  0.00  0.00    +0.000 C 
ATOM     57 O    SER A  11       2.236  -1.576   6.077  0.00  0.00    +0.000 OA
ATOM     58 CB   SER A  11       4.814  -0.712   5.224  0.00  0.00    +0.000 C 
ATOM     59 OG   SER A  11       5.346  -0.568   6.517  0.00  0.00    +0.000 OA
ATOM     60 N    GLY A  12       1.896   0.503   6.814  0.00  0.00    +0.000 N 
ATOM     61 CA   GLY A  12       1.012   0.046   7.872  0.00  0.00    +0.000 C 
ATOM     62 C    GLY A  12      -0.367  -0.413   7.461  0.00  0.00    +0.000 C 
ATOM     63 O    GLY A  12      -1.027  -1.120   8.219  0.00  0.00    +0.000 OA
ATOM     64 N    GLY A  13      -0.816  -0.042   6.287  0.00  0.00    +0.000 N 
ATOM     65 CA   GLY A  13      -2.136  -0.468   5.856  0.00  0.00    +0.000 C 
ATOM     66 C    GLY A  13      -2.580   0.320   4.649  0.00  0.00    +0.000 C 
ATOM     67 O    GLY A  13      -1.780   0.998   4.013  0.00  0.00    +0.000 OA
ATOM     68 N    TRP A  14      -3.853   0.232   4.311  0.00  0.00    +0.000 N 
ATOM     69 CA   TRP A  14      -4.401   0.896   3.143  0.00  0.00    +0.000 C 
ATOM     70 C    TRP A  14      -4.847   2.318   3.483  0.00  0.00    +0.000 C 
ATOM     71 O    TRP A  14      -6.022   2.639   3.438  0.00  0.00    +0.000 OA
ATOM     72 CB   TRP A  14      -5.582   0.102   2.598  0.00  0.00    +0.000 C 
ATOM     73 CG   TRP A  14      -5.232  -1.256   2.087  0.00  0.00    +0.000 C 
ATOM     74 CD1  TRP A  14      -5.057  -2.391   2.810  0.00  0.00    +0.000 C 
ATOM     75 CD2  TRP A  14      -5.004  -1.628   0.721  0.00  0.00    +0.000 A 
ATOM     76 NE1  TRP A  14      -4.742  -3.436   1.976  0.00  0.00    +0.000 NA
ATOM     77 CE2  TRP A  14      -4.717  -3.005   0.685  0.00  0.00    +0.000 A 
ATOM     78 CE3  TRP A  14      -5.041  -0.910  -0.490  0.00  0.00    +0.000 A 
ATOM     79 CZ2  TRP A  14      -4.464  -3.682  -0.507  0.00  0.00    +0.000 A 
ATOM     80 CZ3  TRP A  14      -4.791  -1.582  -1.676  0.00  0.00    +0.000 A 
ATOM     81 CH2  TRP A  14      -4.512  -2.953  -1.684  0.00  0.00    +0.000 A 
ATOM     82 N    GLY A  15      -3.896   3.176   3.821  0.00  0.00    +0.000 N 
ATOM     83 CA   GLY A  15      -4.197   4.545   4.203  0.00  0.00    +0.000 C 
ATOM     84 C    GLY A  15      -3.582   5.535   3.244  0.00  0.00    +0.000 C 
ATOM     85 O    GLY A  15      -3.599   5.346   2.025  0.00  0.00    +0.000 OA
ATOM     86 N    ASP A  16      -3.036   6.596   3.808  0.00  0.00    +0.000 N 
ATOM     87 CA   ASP A  16      -2.381   7.609   3.004  0.00  0.00    +0.000 C 
ATOM     88 C    ASP A  16      -1.275   6.951   2.191  0.00  0.00    +0.000 C 
ATOM     89 O    ASP A  16      -0.477   6.186   2.715  0.00  0.00    +0.000 OA
ATOM     90 CB   ASP A  16      -1.812   8.708   3.907  0.00  0.00    +0.000 C 
ATOM     91 CG   ASP A  16      -1.227   9.875   3.135  0.00  0.00    +0.000 C 
ATOM     92 OD1  ASP A  16      -1.627  10.096   1.972  0.00  0.00    +0.000 OA
ATOM     93 OD2  ASP A  16      -0.380  10.585   3.708  0.00  0.00    +0.000 OA
ATOM     94 N    GLY A  17      -1.240   7.248   0.902  0.00  0.00    +0.000 N 
ATOM     95 CA   GLY A  17      -0.289   6.636  -0.012  0.00  0.00    +0.000 C 
ATOM     96 C    GLY A  17      -0.975   5.678  -0.955  0.00  0.00    +0.000 C 
ATOM     97 O    GLY A  17      -0.818   5.789  -2.176  0.00  0.00    +0.000 OA
ATOM     98 N    PHE A  18      -1.763   4.751  -0.430  0.00  0.00    +0.000 N 
ATOM     99 CA   PHE A  18      -2.451   3.818  -1.302  0.00  0.00    +0.000 C 
ATOM    100 C    PHE A  18      -3.491   4.524  -2.160  0.00  0.00    +0.000 C 
ATOM    101 O    PHE A  18      -3.669   4.186  -3.327  0.00  0.00    +0.000 OA
ATOM    102 CB   PHE A  18      -3.104   2.696  -0.494  0.00  0.00    +0.000 C 
ATOM    103 CG   PHE A  18      -3.777   1.680  -1.375  0.00  0.00    +0.000 A 
ATOM    104 CD1  PHE A  18      -3.019   0.762  -2.086  0.00  0.00    +0.000 A 
ATOM    105 CD2  PHE A  18      -5.159   1.668  -1.524  0.00  0.00    +0.000 A 
ATOM    106 CE1  PHE A  18      -3.631  -0.158  -2.927  0.00  0.00    +0.000 A 
ATOM    107 CE2  PHE A  18      -5.773   0.748  -2.364  0.00  0.00    +0.000 A 
ATOM    108 CZ   PHE A  18      -5.007  -0.163  -3.062  0.00  0.00    +0.000 A 
ATOM    109 N    GLY A  19      -4.163   5.514  -1.622  0.00  0.00    +0.000 N 
ATOM    110 CA   GLY A  19      -5.147   6.251  -2.388  0.00  0.00    +0.000 C 
ATOM    111 C    GLY A  19      -4.547   6.992  -3.563  0.00  0.00    +0.000 C 
ATOM    112 O    GLY A  19      -5.221   7.215  -4.562  0.00  0.00    +0.000 OA
ATOM    113 N    GLY A  20      -3.265   7.372  -3.466  0.00  0.00    +0.000 N 
ATOM    114 CA   GLY A  20      -2.581   8.041  -4.561  0.00  0.00    +0.000 C 
ATOM    115 C    GLY A  20      -2.080   7.097  -5.623  0.00  0.00    +0.000 C 
ATOM    116 O    GLY A  20      -2.047   7.445  -6.801  0.00  0.00    +0.000 OA
ATOM    117 N    GLY A  21      -1.670   5.917  -5.245  0.00  0.00    +0.000 N 
ATOM    118 CA   GLY A  21      -1.190   4.938  -6.204  0.00  0.00    +0.000 C 
ATOM    119 C    GLY A  21      -0.462   3.800  -5.522  0.00  0.00    +0.000 C 
ATOM    120 O    GLY A  21       0.342   4.007  -4.613  0.00  0.00    +0.000 OA
ATOM    121 N    LEU A  22      -0.729   2.601  -5.983  0.00  0.00    +0.000 N 
ATOM    122 CA   LEU A  22      -0.088   1.412  -5.442  0.00  0.00    +0.000 C 
ATOM    123 C    LEU A  22       1.352   1.315  -5.934  0.00  0.00    +0.000 C 
ATOM    124 O    LEU A  22       1.605   1.411  -7.125  0.00  0.00    +0.000 OA
ATOM    125 CB   LEU A  22      -0.875   0.176  -5.884  0.00  0.00    +0.000 C 
ATOM    126 CG   LEU A  22      -0.339  -1.167  -5.396  0.00  0.00    +0.000 C 
ATOM    127 CD1  LEU A  22      -0.467  -1.272  -3.881  0.00  0.00    +0.000 C 
ATOM    128 CD2  LEU A  22      -1.101  -2.304  -6.069  0.00  0.00    +0.000 C 
ATOM    129 N    GLY A  23       2.288   1.116  -5.016  0.00  0.00    +0.000 N 
ATOM    130 CA   GLY A  23       3.676   0.963  -5.408  0.00  0.00    +0.000 C 
ATOM    131 C    GLY A  23       4.350  -0.263  -4.830  0.00  0.00    +0.000 C 
ATOM    132 O    GLY A  23       5.457  -0.611  -5.236  0.00  0.00    +0.000 OA
ATOM    133 N    GLY A  24       3.692  -0.948  -3.900  0.00  0.00    +0.000 N 
ATOM    134 CA   GLY A  24       4.293  -2.123  -3.288  0.00  0.00    +0.000 C 
ATOM    135 C    GLY A  24       3.275  -3.225  -3.113  0.00  0.00    +0.000 C 
ATOM    136 O    GLY A  24       2.228  -3.227  -3.764  0.00  0.00    +0.000 OA
ATOM    137 N    TYR A  25       3.584  -4.192  -2.248  0.00  0.00    +0.000 N 
ATOM    138 CA   TYR A  25       2.706  -5.320  -2.013  0.00  0.00    +0.000 C 
ATOM    139 C    TYR A  25       2.751  -5.737  -0.554  0.00  0.00    +0.000 C 
ATOM    140 O    TYR A  25       3.815  -5.755   0.053  0.00  0.00    +0.000 OA
ATOM    141 CB   TYR A  25       3.101  -6.509  -2.899  0.00  0.00    +0.000 C 
ATOM    142 CG   TYR A  25       2.254  -7.721  -2.624  0.00  0.00    +0.000 A 
ATOM    143 CD1  TYR A  25       0.986  -7.829  -3.190  0.00  0.00    +0.000 A 
ATOM    144 CD2  TYR A  25       2.695  -8.722  -1.763  0.00  0.00    +0.000 A 
ATOM    145 CE1  TYR A  25       0.178  -8.925  -2.909  0.00  0.00    +0.000 A 
ATOM    146 CE2  TYR A  25       1.891  -9.822  -1.475  0.00  0.00    +0.000 A 
ATOM    147 CZ   TYR A  25       0.633  -9.919  -2.051  0.00  0.00    +0.000 A 
ATOM    148 OH   TYR A  25      -0.159 -10.997  -1.770  0.00  0.00    +0.000 OA
ATOM    149 N    GLY A  26       1.609  -6.086  -0.013  0.00  0.00    +0.000 N 
ATOM    150 CA   GLY A  26       1.515  -6.605   1.340  0.00  0.00    +0.000 C 
ATOM    151 C    GLY A  26       0.165  -7.254   1.512  0.00  0.00    +0.000 C 
ATOM    152 O    GLY A  26      -0.653  -7.276   0.590  0.00  0.00    +0.000 OA
ATOM    153 N    SER A  27      -0.064  -7.801   2.708  0.00  0.00    +0.000 N 
ATOM    154 CA   SER A  27      -1.333  -8.452   3.001  0.00  0.00    +0.000 C 
ATOM    155 C    SER A  27      -1.625  -8.379   4.487  0.00  0.00    +0.000 C 
ATOM    156 O    SER A  27      -0.784  -7.930   5.273  0.00  0.00    +0.000 OA
ATOM    157 CB   SER A  27      -1.320  -9.910   2.530  0.00  0.00    +0.000 C 
ATOM    158 OG   SER A  27      -0.381 -10.650   3.264  0.00  0.00    +0.000 OA
ATOM    159  H   ASP A   1       0.870  -7.222   7.234  0.00  0.00    +0.000 HD
ATOM    160  H   ASP A   1      -0.458  -7.810   8.049  0.00  0.00    +0.000 HD
ATOM    161  H   ASP A   1      -4.251  -5.983   8.816  0.00  0.00    +0.000 HD
ATOM    162  H   GLY A   2      -1.349  -5.040   4.671  0.00  0.00    +0.000 HD
ATOM    163  H   GLY A   3       1.444  -1.921   3.107  0.00  0.00    +0.000 HD
ATOM    164  H   GLU A   4       4.979  -2.801   0.774  0.00  0.00    +0.000 HD
ATOM    165  H   GLU A   4       9.730  -1.893   2.762  0.00  0.00    +0.000 HD
ATOM    166  H   GLY A   5       5.414   1.711   0.168  0.00  0.00    +0.000 HD
ATOM    167  H   GLY A   6       3.614   3.179  -3.670  0.00  0.00    +0.000 HD
ATOM    168  H   ILE A   7       0.931   6.462  -3.740  0.00  0.00    +0.000 HD
ATOM    169  H   GLY A   8       3.648   9.132  -1.292  0.00  0.00    +0.000 HD
ATOM    170  H   GLY A   9       3.554   6.791  -0.090  0.00  0.00    +0.000 HD
ATOM    171  H   GLY A  10       5.907   4.308   2.920  0.00  0.00    +0.000 HD
ATOM    172  H   SER A  11       3.779   1.965   6.080  0.00  0.00    +0.000 HD
ATOM    173  H   SER A  11       5.579   0.361   6.669  0.00  0.00    +0.000 HD
ATOM    174  H   GLY A  12       2.046   1.467   6.679  0.00  0.00    +0.000 HD
ATOM    175  H   GLY A  13      -0.262   0.522   5.701  0.00  0.00    +0.000 HD
ATOM    176  H   TRP A  14      -4.455  -0.306   4.874  0.00  0.00    +0.000 HD
ATOM    177  H   GLY A  15      -2.958   2.877   3.813  0.00  0.00    +0.000 HD
ATOM    178  H   ASP A  16      -3.074   6.701   4.786  0.00  0.00    +0.000 HD
ATOM    179  H   ASP A  16      -0.111  10.380   4.582  0.00  0.00    +0.000 HD
ATOM    180  H   GLY A  17      -1.881   7.907   0.549  0.00  0.00    +0.000 HD
ATOM    181  H   PHE A  18      -1.881   4.696   0.546  0.00  0.00    +0.000 HD
ATOM    182  H   GLY A  19      -3.996   5.760  -0.683  0.00  0.00    +0.000 HD
ATOM    183  H   GLY A  20      -2.774   7.193  -2.632  0.00  0.00    +0.000 HD
ATOM    184  H   GLY A  21      -1.687   5.685  -4.288  0.00  0.00    +0.000 HD
ATOM    185  H   LEU A  22      -1.381   2.503  -6.715  0.00  0.00    +0.000 HD
ATOM    186  H   GLY A  23       2.040   1.072  -4.064  0.00  0.00    +0.000 HD
ATOM    187  H   GLY A  24       2.793  -0.658  -3.624  0.00  0.00    +0.000 HD
ATOM    188  H   TYR A  25       4.434  -4.138  -1.754  0.00  0.00    +0.000 HD
ATOM    189  H   TYR A  25      -1.010 -11.067  -2.157  0.00  0.00    +0.000 HD
ATOM    190  H   GLY A  26       0.785  -5.993  -0.543  0.00  0.00    +0.000 HD
ATOM    191  H   SER A  27       0.634  -7.764   3.401  0.00  0.00    +0.000 HD
ATOM    192  H   SER A  27       0.503 -10.272   3.133  0.00  0.00    +0.000 HD
TER 
