MODEL 1
REMARK VINA RESULT:      -7.0      0.000      0.000
REMARK  Name = ox3_orig_f8_ligand
REMARK  5 active torsions:
REMARK  status: ('A' for Active; 'I' for Inactive)
REMARK    1  A    between atoms: C_1  and  O_2
REMARK    2  A    between atoms: O_2  and  C_3
REMARK    3  A    between atoms: C_6  and  C_7
REMARK    4  A    between atoms: C_7  and  C_9
REMARK    5  A    between atoms: C_15  and  O_16
REMARK                            x       y       z     vdW  Elec       q    Type
REMARK                         _______ _______ _______ _____ _____    ______ ____
ROOT
ATOM      1  C   UNL     1      -0.208   0.667   0.296  0.00  0.00    +0.000 A 
ATOM      2  C   UNL     1      -1.366   0.093   0.823  0.00  0.00    +0.000 A 
ATOM      3  C   UNL     1      -1.541  -1.281   0.779  0.00  0.00    +0.000 A 
ATOM      4  C   UNL     1      -0.565  -2.098   0.216  0.00  0.00    +0.000 A 
ATOM      5  C   UNL     1       0.583  -1.513  -0.316  0.00  0.00    +0.000 A 
ATOM      6  C   UNL     1       0.750  -0.134  -0.272  0.00  0.00    +0.000 A 
ENDROOT
BRANCH   1   8
ATOM      7  C   UNL     1       0.202   2.702   1.558  0.00  0.00    +0.000 C 
ATOM      8  O   UNL     1       0.016   2.023   0.316  0.00  0.00    +0.000 OA
ENDBRANCH   1   8
BRANCH   4   9
ATOM      9  C   UNL     1      -0.745  -3.588   0.153  0.00  0.00    +0.000 C 
ATOM     10  O   UNL     1      -0.527  -4.233   1.151  0.00  0.00    +0.000 OA
BRANCH   9  11
ATOM     11  C   UNL     1      -1.142  -4.292  -1.091  0.00  0.00    +0.000 A 
ATOM     12  C   UNL     1      -0.728  -3.848  -2.340  0.00  0.00    +0.000 A 
ATOM     13  C   UNL     1      -1.144  -4.504  -3.483  0.00  0.00    +0.000 A 
ATOM     14  C   UNL     1      -1.930  -5.637  -3.404  0.00  0.00    +0.000 A 
ATOM     15  C   UNL     1      -2.361  -6.079  -2.165  0.00  0.00    +0.000 A 
ATOM     16  C   UNL     1      -1.987  -5.399  -1.005  0.00  0.00    +0.000 A 
ENDBRANCH   9  11
ENDBRANCH   4   9
BRANCH   5  17
ATOM     17  O   UNL     1       1.533  -2.303  -0.892  0.00  0.00    +0.000 OA
ATOM     18  H   UNL     1       2.255  -2.693  -0.338  0.00  0.00    +0.000 HD
ENDBRANCH   5  17
TORSDOF 4
ENDMDL
MODEL 2
REMARK VINA RESULT:      -6.0      2.013      6.247
REMARK  Name = ox3_orig_f8_ligand
REMARK  5 active torsions:
REMARK  status: ('A' for Active; 'I' for Inactive)
REMARK    1  A    between atoms: C_1  and  O_2
REMARK    2  A    between atoms: O_2  and  C_3
REMARK    3  A    between atoms: C_6  and  C_7
REMARK    4  A    between atoms: C_7  and  C_9
REMARK    5  A    between atoms: C_15  and  O_16
REMARK                            x       y       z     vdW  Elec       q    Type
REMARK                         _______ _______ _______ _____ _____    ______ ____
ROOT
ATOM      1  C   UNL     1      -1.959  -5.965  -3.521  0.00  0.00    +0.000 A 
ATOM      2  C   UNL     1      -1.057  -4.900  -3.570  0.00  0.00    +0.000 A 
ATOM      3  C   UNL     1      -0.745  -4.202  -2.414  0.00  0.00    +0.000 A 
ATOM      4  C   UNL     1      -1.321  -4.558  -1.198  0.00  0.00    +0.000 A 
ATOM      5  C   UNL     1      -2.228  -5.617  -1.163  0.00  0.00    +0.000 A 
ATOM      6  C   UNL     1      -2.538  -6.309  -2.327  0.00  0.00    +0.000 A 
ENDROOT
BRANCH   1   8
ATOM      7  C   UNL     1      -1.685  -6.409  -5.893  0.00  0.00    +0.000 C 
ATOM      8  O   UNL     1      -2.300  -6.691  -4.636  0.00  0.00    +0.000 OA
ENDBRANCH   1   8
BRANCH   4   9
ATOM      9  C   UNL     1      -1.000  -3.804   0.061  0.00  0.00    +0.000 C 
ATOM     10  O   UNL     1      -1.090  -4.388   1.115  0.00  0.00    +0.000 OA
BRANCH   9  11
ATOM     11  C   UNL     1      -0.615  -2.371   0.058  0.00  0.00    +0.000 A 
ATOM     12  C   UNL     1      -1.442  -1.397   0.600  0.00  0.00    +0.000 A 
ATOM     13  C   UNL     1      -1.073  -0.066   0.549  0.00  0.00    +0.000 A 
ATOM     14  C   UNL     1       0.141   0.313   0.009  0.00  0.00    +0.000 A 
ATOM     15  C   UNL     1       0.966  -0.650  -0.547  0.00  0.00    +0.000 A 
ATOM     16  C   UNL     1       0.584  -1.992  -0.545  0.00  0.00    +0.000 A 
ENDBRANCH   9  11
ENDBRANCH   4   9
BRANCH   5  17
ATOM     17  O   UNL     1      -2.816  -5.956   0.019  0.00  0.00    +0.000 OA
ATOM     18  H   UNL     1      -3.776  -6.197   0.043  0.00  0.00    +0.000 HD
ENDBRANCH   5  17
TORSDOF 4
ENDMDL
MODEL 3
REMARK VINA RESULT:      -5.2      1.538      6.849
REMARK  Name = ox3_orig_f8_ligand
REMARK  5 active torsions:
REMARK  status: ('A' for Active; 'I' for Inactive)
REMARK    1  A    between atoms: C_1  and  O_2
REMARK    2  A    between atoms: O_2  and  C_3
REMARK    3  A    between atoms: C_6  and  C_7
REMARK    4  A    between atoms: C_7  and  C_9
REMARK    5  A    between atoms: C_15  and  O_16
REMARK                            x       y       z     vdW  Elec       q    Type
REMARK                         _______ _______ _______ _____ _____    ______ ____
ROOT
ATOM      1  C   UNL     1      -0.424  -3.006  -0.384  0.00  0.00    +0.000 A 
ATOM      2  C   UNL     1       0.732  -2.400  -0.880  0.00  0.00    +0.000 A 
ATOM      3  C   UNL     1       0.928  -1.039  -0.710  0.00  0.00    +0.000 A 
ATOM      4  C   UNL     1      -0.019  -0.267  -0.044  0.00  0.00    +0.000 A 
ATOM      5  C   UNL     1      -1.175  -0.881   0.438  0.00  0.00    +0.000 A 
ATOM      6  C   UNL     1      -1.366  -2.246   0.262  0.00  0.00    +0.000 A 
ENDROOT
BRANCH   1   8
ATOM      7  C   UNL     1      -0.988  -4.895  -1.802  0.00  0.00    +0.000 C 
ATOM      8  O   UNL     1      -0.666  -4.351  -0.522  0.00  0.00    +0.000 OA
ENDBRANCH   1   8
BRANCH   4   9
ATOM      9  C   UNL     1       0.175   1.211   0.139  0.00  0.00    +0.000 C 
ATOM     10  O   UNL     1       0.194   1.911  -0.846  0.00  0.00    +0.000 OA
BRANCH   9  11
ATOM     11  C   UNL     1       0.380   1.831   1.471  0.00  0.00    +0.000 A 
ATOM     12  C   UNL     1       0.807   1.084   2.560  0.00  0.00    +0.000 A 
ATOM     13  C   UNL     1       0.954   1.683   3.798  0.00  0.00    +0.000 A 
ATOM     14  C   UNL     1       0.732   3.036   3.961  0.00  0.00    +0.000 A 
ATOM     15  C   UNL     1       0.292   3.786   2.884  0.00  0.00    +0.000 A 
ATOM     16  C   UNL     1       0.094   3.186   1.641  0.00  0.00    +0.000 A 
ENDBRANCH   9  11
ENDBRANCH   4   9
BRANCH   5  17
ATOM     17  O   UNL     1      -2.120  -0.130   1.071  0.00  0.00    +0.000 OA
ATOM     18  H   UNL     1      -2.711   0.467   0.546  0.00  0.00    +0.000 HD
ENDBRANCH   5  17
TORSDOF 4
ENDMDL
MODEL 4
REMARK VINA RESULT:      -4.6      8.036      8.910
REMARK  Name = ox3_orig_f8_ligand
REMARK  5 active torsions:
REMARK  status: ('A' for Active; 'I' for Inactive)
REMARK    1  A    between atoms: C_1  and  O_2
REMARK    2  A    between atoms: O_2  and  C_3
REMARK    3  A    between atoms: C_6  and  C_7
REMARK    4  A    between atoms: C_7  and  C_9
REMARK    5  A    between atoms: C_15  and  O_16
REMARK                            x       y       z     vdW  Elec       q    Type
REMARK                         _______ _______ _______ _____ _____    ______ ____
ROOT
ATOM      1  C   UNL     1      -7.559   4.057  -0.152  0.00  0.00    +0.000 A 
ATOM      2  C   UNL     1      -7.754   3.009   0.750  0.00  0.00    +0.000 A 
ATOM      3  C   UNL     1      -8.460   1.882   0.362  0.00  0.00    +0.000 A 
ATOM      4  C   UNL     1      -8.977   1.783  -0.926  0.00  0.00    +0.000 A 
ATOM      5  C   UNL     1      -8.785   2.839  -1.816  0.00  0.00    +0.000 A 
ATOM      6  C   UNL     1      -8.078   3.967  -1.419  0.00  0.00    +0.000 A 
ENDROOT
BRANCH   1   8
ATOM      7  C   UNL     1      -6.978   5.748   1.491  0.00  0.00    +0.000 C 
ATOM      8  O   UNL     1      -6.864   5.194   0.180  0.00  0.00    +0.000 OA
ENDBRANCH   1   8
BRANCH   4   9
ATOM      9  C   UNL     1      -9.754   0.571  -1.357  0.00  0.00    +0.000 C 
ATOM     10  O   UNL     1     -10.915   0.715  -1.660  0.00  0.00    +0.000 OA
BRANCH   9  11
ATOM     11  C   UNL     1      -9.160  -0.788  -1.389  0.00  0.00    +0.000 A 
ATOM     12  C   UNL     1      -8.945  -1.513  -0.224  0.00  0.00    +0.000 A 
ATOM     13  C   UNL     1      -8.357  -2.763  -0.283  0.00  0.00    +0.000 A 
ATOM     14  C   UNL     1      -8.022  -3.332  -1.496  0.00  0.00    +0.000 A 
ATOM     15  C   UNL     1      -8.219  -2.611  -2.661  0.00  0.00    +0.000 A 
ATOM     16  C   UNL     1      -8.768  -1.330  -2.613  0.00  0.00    +0.000 A 
ENDBRANCH   9  11
ENDBRANCH   4   9
BRANCH   5  17
ATOM     17  O   UNL     1      -9.309   2.761  -3.072  0.00  0.00    +0.000 OA
ATOM     18  H   UNL     1      -9.287   1.902  -3.565  0.00  0.00    +0.000 HD
ENDBRANCH   5  17
TORSDOF 4
ENDMDL
MODEL 5
REMARK VINA RESULT:      -4.6      5.206      7.124
REMARK  Name = ox3_orig_f8_ligand
REMARK  5 active torsions:
REMARK  status: ('A' for Active; 'I' for Inactive)
REMARK    1  A    between atoms: C_1  and  O_2
REMARK    2  A    between atoms: O_2  and  C_3
REMARK    3  A    between atoms: C_6  and  C_7
REMARK    4  A    between atoms: C_7  and  C_9
REMARK    5  A    between atoms: C_15  and  O_16
REMARK                            x       y       z     vdW  Elec       q    Type
REMARK                         _______ _______ _______ _____ _____    ______ ____
ROOT
ATOM      1  C   UNL     1      -6.896  -6.418   0.352  0.00  0.00    +0.000 A 
ATOM      2  C   UNL     1      -7.039  -6.287  -1.031  0.00  0.00    +0.000 A 
ATOM      3  C   UNL     1      -6.019  -6.697  -1.874  0.00  0.00    +0.000 A 
ATOM      4  C   UNL     1      -4.850  -7.244  -1.354  0.00  0.00    +0.000 A 
ATOM      5  C   UNL     1      -4.714  -7.361   0.029  0.00  0.00    +0.000 A 
ATOM      6  C   UNL     1      -5.740  -6.944   0.869  0.00  0.00    +0.000 A 
ENDROOT
BRANCH   1   8
ATOM      7  C   UNL     1      -7.552  -5.762   2.597  0.00  0.00    +0.000 C 
ATOM      8  O   UNL     1      -7.877  -6.030   1.232  0.00  0.00    +0.000 OA
ENDBRANCH   1   8
BRANCH   4   9
ATOM      9  C   UNL     1      -3.732  -7.684  -2.256  0.00  0.00    +0.000 C 
ATOM     10  O   UNL     1      -3.610  -8.865  -2.481  0.00  0.00    +0.000 OA
BRANCH   9  11
ATOM     11  C   UNL     1      -2.760  -6.730  -2.845  0.00  0.00    +0.000 A 
ATOM     12  C   UNL     1      -2.048  -5.839  -2.054  0.00  0.00    +0.000 A 
ATOM     13  C   UNL     1      -1.176  -4.938  -2.636  0.00  0.00    +0.000 A 
ATOM     14  C   UNL     1      -0.958  -4.942  -4.000  0.00  0.00    +0.000 A 
ATOM     15  C   UNL     1      -1.675  -5.816  -4.799  0.00  0.00    +0.000 A 
ATOM     16  C   UNL     1      -2.593  -6.700  -4.230  0.00  0.00    +0.000 A 
ENDBRANCH   9  11
ENDBRANCH   4   9
BRANCH   5  17
ATOM     17  O   UNL     1      -3.563  -7.872   0.549  0.00  0.00    +0.000 OA
ATOM     18  H   UNL     1      -2.981  -7.306   1.115  0.00  0.00    +0.000 HD
ENDBRANCH   5  17
TORSDOF 4
ENDMDL
MODEL 6
REMARK VINA RESULT:      -4.5      9.498     11.758
REMARK  Name = ox3_orig_f8_ligand
REMARK  5 active torsions:
REMARK  status: ('A' for Active; 'I' for Inactive)
REMARK    1  A    between atoms: C_1  and  O_2
REMARK    2  A    between atoms: O_2  and  C_3
REMARK    3  A    between atoms: C_6  and  C_7
REMARK    4  A    between atoms: C_7  and  C_9
REMARK    5  A    between atoms: C_15  and  O_16
REMARK                            x       y       z     vdW  Elec       q    Type
REMARK                         _______ _______ _______ _____ _____    ______ ____
ROOT
ATOM      1  C   UNL     1      -2.447   3.841   7.909  0.00  0.00    +0.000 A 
ATOM      2  C   UNL     1      -1.674   4.635   8.758  0.00  0.00    +0.000 A 
ATOM      3  C   UNL     1      -0.318   4.794   8.516  0.00  0.00    +0.000 A 
ATOM      4  C   UNL     1       0.281   4.169   7.426  0.00  0.00    +0.000 A 
ATOM      5  C   UNL     1      -0.499   3.370   6.590  0.00  0.00    +0.000 A 
ATOM      6  C   UNL     1      -1.857   3.214   6.842  0.00  0.00    +0.000 A 
ENDROOT
BRANCH   1   8
ATOM      7  C   UNL     1      -4.479   2.608   7.413  0.00  0.00    +0.000 C 
ATOM      8  O   UNL     1      -3.794   3.653   8.103  0.00  0.00    +0.000 OA
ENDBRANCH   1   8
BRANCH   4   9
ATOM      9  C   UNL     1       1.751   4.324   7.156  0.00  0.00    +0.000 C 
ATOM     10  O   UNL     1       2.459   3.353   7.279  0.00  0.00    +0.000 OA
BRANCH   9  11
ATOM     11  C   UNL     1       2.361   5.624   6.784  0.00  0.00    +0.000 A 
ATOM     12  C   UNL     1       3.604   6.007   7.270  0.00  0.00    +0.000 A 
ATOM     13  C   UNL     1       4.131   7.241   6.933  0.00  0.00    +0.000 A 
ATOM     14  C   UNL     1       3.459   8.087   6.074  0.00  0.00    +0.000 A 
ATOM     15  C   UNL     1       2.212   7.721   5.597  0.00  0.00    +0.000 A 
ATOM     16  C   UNL     1       1.648   6.499   5.965  0.00  0.00    +0.000 A 
ENDBRANCH   9  11
ENDBRANCH   4   9
BRANCH   5  17
ATOM     17  O   UNL     1       0.084   2.735   5.535  0.00  0.00    +0.000 OA
ATOM     18  H   UNL     1      -0.129   3.015   4.610  0.00  0.00    +0.000 HD
ENDBRANCH   5  17
TORSDOF 4
ENDMDL
MODEL 7
REMARK VINA RESULT:      -4.5      8.043      8.845
REMARK  Name = ox3_orig_f8_ligand
REMARK  5 active torsions:
REMARK  status: ('A' for Active; 'I' for Inactive)
REMARK    1  A    between atoms: C_1  and  O_2
REMARK    2  A    between atoms: O_2  and  C_3
REMARK    3  A    between atoms: C_6  and  C_7
REMARK    4  A    between atoms: C_7  and  C_9
REMARK    5  A    between atoms: C_15  and  O_16
REMARK                            x       y       z     vdW  Elec       q    Type
REMARK                         _______ _______ _______ _____ _____    ______ ____
ROOT
ATOM      1  C   UNL     1      -7.616   4.128  -0.170  0.00  0.00    +0.000 A 
ATOM      2  C   UNL     1      -8.076   3.920  -1.472  0.00  0.00    +0.000 A 
ATOM      3  C   UNL     1      -8.791   2.774  -1.780  0.00  0.00    +0.000 A 
ATOM      4  C   UNL     1      -9.061   1.826  -0.798  0.00  0.00    +0.000 A 
ATOM      5  C   UNL     1      -8.588   2.039   0.497  0.00  0.00    +0.000 A 
ATOM      6  C   UNL     1      -7.869   3.189   0.797  0.00  0.00    +0.000 A 
ENDROOT
BRANCH   1   8
ATOM      7  C   UNL     1      -7.003   5.765   1.517  0.00  0.00    +0.000 C 
ATOM      8  O   UNL     1      -6.905   5.247   0.190  0.00  0.00    +0.000 OA
ENDBRANCH   1   8
BRANCH   4   9
ATOM      9  C   UNL     1      -9.827   0.574  -1.120  0.00  0.00    +0.000 C 
ATOM     10  O   UNL     1     -11.002   0.537  -0.843  0.00  0.00    +0.000 OA
BRANCH   9  11
ATOM     11  C   UNL     1      -9.187  -0.619  -1.726  0.00  0.00    +0.000 A 
ATOM     12  C   UNL     1      -9.008  -0.727  -3.098  0.00  0.00    +0.000 A 
ATOM     13  C   UNL     1      -8.441  -1.868  -3.637  0.00  0.00    +0.000 A 
ATOM     14  C   UNL     1      -7.999  -2.891  -2.822  0.00  0.00    +0.000 A 
ATOM     15  C   UNL     1      -8.187  -2.800  -1.454  0.00  0.00    +0.000 A 
ATOM     16  C   UNL     1      -8.800  -1.675  -0.901  0.00  0.00    +0.000 A 
ENDBRANCH   9  11
ENDBRANCH   4   9
BRANCH   5  17
ATOM     17  O   UNL     1      -8.827   1.104   1.460  0.00  0.00    +0.000 OA
ATOM     18  H   UNL     1      -9.752   0.938   1.770  0.00  0.00    +0.000 HD
ENDBRANCH   5  17
TORSDOF 4
ENDMDL
MODEL 8
REMARK VINA RESULT:      -4.5      7.435      8.347
REMARK  Name = ox3_orig_f8_ligand
REMARK  5 active torsions:
REMARK  status: ('A' for Active; 'I' for Inactive)
REMARK    1  A    between atoms: C_1  and  O_2
REMARK    2  A    between atoms: O_2  and  C_3
REMARK    3  A    between atoms: C_6  and  C_7
REMARK    4  A    between atoms: C_7  and  C_9
REMARK    5  A    between atoms: C_15  and  O_16
REMARK                            x       y       z     vdW  Elec       q    Type
REMARK                         _______ _______ _______ _____ _____    ______ ____
ROOT
ATOM      1  C   UNL     1      -8.446  -2.518  -0.068  0.00  0.00    +0.000 A 
ATOM      2  C   UNL     1      -8.600  -1.430  -0.930  0.00  0.00    +0.000 A 
ATOM      3  C   UNL     1      -8.482  -1.609  -2.299  0.00  0.00    +0.000 A 
ATOM      4  C   UNL     1      -8.215  -2.869  -2.826  0.00  0.00    +0.000 A 
ATOM      5  C   UNL     1      -8.054  -3.946  -1.955  0.00  0.00    +0.000 A 
ATOM      6  C   UNL     1      -8.170  -3.759  -0.583  0.00  0.00    +0.000 A 
ENDROOT
BRANCH   1   8
ATOM      7  C   UNL     1      -8.466  -3.553   2.129  0.00  0.00    +0.000 C 
ATOM      8  O   UNL     1      -8.556  -2.397   1.296  0.00  0.00    +0.000 OA
ENDBRANCH   1   8
BRANCH   4   9
ATOM      9  C   UNL     1      -8.075  -3.075  -4.308  0.00  0.00    +0.000 C 
ATOM     10  O   UNL     1      -8.900  -3.755  -4.870  0.00  0.00    +0.000 OA
BRANCH   9  11
ATOM     11  C   UNL     1      -6.948  -2.509  -5.089  0.00  0.00    +0.000 A 
ATOM     12  C   UNL     1      -7.093  -1.348  -5.835  0.00  0.00    +0.000 A 
ATOM     13  C   UNL     1      -6.035  -0.865  -6.582  0.00  0.00    +0.000 A 
ATOM     14  C   UNL     1      -4.806  -1.495  -6.559  0.00  0.00    +0.000 A 
ATOM     15  C   UNL     1      -4.655  -2.663  -5.831  0.00  0.00    +0.000 A 
ATOM     16  C   UNL     1      -5.729  -3.187  -5.110  0.00  0.00    +0.000 A 
ENDBRANCH   9  11
ENDBRANCH   4   9
BRANCH   5  17
ATOM     17  O   UNL     1      -7.768  -5.180  -2.461  0.00  0.00    +0.000 OA
ATOM     18  H   UNL     1      -6.870  -5.573  -2.326  0.00  0.00    +0.000 HD
ENDBRANCH   5  17
TORSDOF 4
ENDMDL
MODEL 9
REMARK VINA RESULT:      -4.4      3.697      6.313
REMARK  Name = ox3_orig_f8_ligand
REMARK  5 active torsions:
REMARK  status: ('A' for Active; 'I' for Inactive)
REMARK    1  A    between atoms: C_1  and  O_2
REMARK    2  A    between atoms: O_2  and  C_3
REMARK    3  A    between atoms: C_6  and  C_7
REMARK    4  A    between atoms: C_7  and  C_9
REMARK    5  A    between atoms: C_15  and  O_16
REMARK                            x       y       z     vdW  Elec       q    Type
REMARK                         _______ _______ _______ _____ _____    ______ ____
ROOT
ATOM      1  C   UNL     1      -0.996  -4.635  -2.049  0.00  0.00    +0.000 A 
ATOM      2  C   UNL     1      -1.028  -4.654  -3.445  0.00  0.00    +0.000 A 
ATOM      3  C   UNL     1      -1.838  -5.562  -4.108  0.00  0.00    +0.000 A 
ATOM      4  C   UNL     1      -2.626  -6.457  -3.392  0.00  0.00    +0.000 A 
ATOM      5  C   UNL     1      -2.579  -6.436  -1.998  0.00  0.00    +0.000 A 
ATOM      6  C   UNL     1      -1.763  -5.524  -1.341  0.00  0.00    +0.000 A 
ENDROOT
BRANCH   1   8
ATOM      7  C   UNL     1      -0.623  -3.307  -0.050  0.00  0.00    +0.000 C 
ATOM      8  O   UNL     1      -0.214  -3.754  -1.343  0.00  0.00    +0.000 OA
ENDBRANCH   1   8
BRANCH   4   9
ATOM      9  C   UNL     1      -3.502  -7.454  -4.097  0.00  0.00    +0.000 C 
ATOM     10  O   UNL     1      -4.669  -7.183  -4.249  0.00  0.00    +0.000 OA
BRANCH   9  11
ATOM     11  C   UNL     1      -2.994  -8.764  -4.576  0.00  0.00    +0.000 A 
ATOM     12  C   UNL     1      -3.209  -9.932  -3.857  0.00  0.00    +0.000 A 
ATOM     13  C   UNL     1      -2.693 -11.131  -4.311  0.00  0.00    +0.000 A 
ATOM     14  C   UNL     1      -2.003 -11.199  -5.505  0.00  0.00    +0.000 A 
ATOM     15  C   UNL     1      -1.770 -10.037  -6.222  0.00  0.00    +0.000 A 
ATOM     16  C   UNL     1      -2.245  -8.812  -5.751  0.00  0.00    +0.000 A 
ENDBRANCH   9  11
ENDBRANCH   4   9
BRANCH   5  17
ATOM     17  O   UNL     1      -3.330  -7.326  -1.288  0.00  0.00    +0.000 OA
ATOM     18  H   UNL     1      -4.308  -7.375  -1.434  0.00  0.00    +0.000 HD
ENDBRANCH   5  17
TORSDOF 4
ENDMDL
