REMARK  Name = bg33_2_ligand
REMARK  12 active torsions:
REMARK  status: ('A' for Active; 'I' for Inactive)
REMARK    1  A    between atoms: C_1  and  C_2
REMARK    2  A    between atoms: C_2  and  C_3
REMARK    3  A    between atoms: C_3  and  C_4
REMARK    4  A    between atoms: C_4  and  C_5
REMARK    5  A    between atoms: C_5  and  C_6
REMARK    6  A    between atoms: C_5  and  O_8
REMARK    7  A    between atoms: C_6  and  C_7
REMARK    8  A    between atoms: O_8  and  C_9
REMARK    9  A    between atoms: C_9  and  C_11
REMARK   10  A    between atoms: C_12  and  C_13
REMARK   11  A    between atoms: C_16  and  O_17
REMARK   12  A    between atoms: O_17  and  C_18
REMARK                            x       y       z     vdW  Elec       q    Type
REMARK                         _______ _______ _______ _____ _____    ______ ____
ROOT
ATOM      1  C   UNL     1       0.461   0.140   1.702  0.00  0.00    +0.000 C 
ATOM      2  O   UNL     1       0.199  -0.254   0.587  0.00  0.00    +0.000 OA
ENDROOT
BRANCH   1   3
ATOM      3  C   UNL     1       1.072   1.500   1.874  0.00  0.00    +0.000 C 
ATOM      4  C   UNL     1       1.184   2.150   3.076  0.00  0.00    +0.000 C 
BRANCH   4   5
ATOM      5  C   UNL     1       1.945   3.451   3.167  0.00  0.00    +0.000 A 
ATOM      6  C   UNL     1       2.772   3.850   2.136  0.00  0.00    +0.000 A 
ATOM      7  C   UNL     1       3.469   5.047   2.280  0.00  0.00    +0.000 A 
ATOM      8  C   UNL     1       3.371   5.849   3.408  0.00  0.00    +0.000 A 
ATOM      9  C   UNL     1       2.557   5.411   4.424  0.00  0.00    +0.000 A 
ATOM     10  C   UNL     1       1.834   4.216   4.311  0.00  0.00    +0.000 A 
BRANCH   8  11
ATOM     11  O   UNL     1       4.109   7.022   3.530  0.00  0.00    +0.000 OA
ATOM     12  C   UNL     1       4.019   7.922   2.418  0.00  0.00    +0.000 C 
ENDBRANCH   8  11
ENDBRANCH   4   5
ENDBRANCH   1   3
BRANCH   1  13
ATOM     13  O   UNL     1       0.238  -0.730   2.807  0.00  0.00    +0.000 OA
BRANCH  13  14
ATOM     14  C   UNL     1      -0.259  -2.079   2.535  0.00  0.00    +0.000 C 
BRANCH  14  15
ATOM     15  C   UNL     1      -0.884  -2.757   3.737  0.00  0.00    +0.000 C 
ATOM     16  C   UNL     1      -1.903  -3.869   3.269  0.00  0.00    +0.000 C 
ENDBRANCH  14  15
BRANCH  14  17
ATOM     17  C   UNL     1       0.841  -2.960   2.014  0.00  0.00    +0.000 C 
BRANCH  17  18
ATOM     18  C   UNL     1       1.905  -3.220   3.095  0.00  0.00    +0.000 C 
BRANCH  18  20
ATOM     19  C   UNL     1       3.909  -4.515   3.824  0.00  0.00    +0.000 C 
ATOM     20  C   UNL     1       2.895  -4.282   2.690  0.00  0.00    +0.000 C 
ENDBRANCH  18  20
ENDBRANCH  17  18
ENDBRANCH  14  17
ENDBRANCH  13  14
ENDBRANCH   1  13
TORSDOF 9
