MODEL 1
REMARK VINA RESULT:      -4.4      0.000      0.000
REMARK  Name = bg33_2_ligand
REMARK  12 active torsions:
REMARK  status: ('A' for Active; 'I' for Inactive)
REMARK    1  A    between atoms: C_1  and  C_2
REMARK    2  A    between atoms: C_2  and  C_3
REMARK    3  A    between atoms: C_3  and  C_4
REMARK    4  A    between atoms: C_4  and  C_5
REMARK    5  A    between atoms: C_5  and  C_6
REMARK    6  A    between atoms: C_5  and  O_8
REMARK    7  A    between atoms: C_6  and  C_7
REMARK    8  A    between atoms: O_8  and  C_9
REMARK    9  A    between atoms: C_9  and  C_11
REMARK   10  A    between atoms: C_12  and  C_13
REMARK   11  A    between atoms: C_16  and  O_17
REMARK   12  A    between atoms: O_17  and  C_18
REMARK                            x       y       z     vdW  Elec       q    Type
REMARK                         _______ _______ _______ _____ _____    ______ ____
ROOT
ATOM      1  C   UNL     1       1.665  -4.656  -6.547  0.00  0.00    +0.000 C 
ATOM      2  O   UNL     1       1.199  -5.758  -6.358  0.00  0.00    +0.000 OA
ENDROOT
BRANCH   1   3
ATOM      3  C   UNL     1       0.759  -3.460  -6.506  0.00  0.00    +0.000 C 
ATOM      4  C   UNL     1       0.518  -2.637  -7.575  0.00  0.00    +0.000 C 
BRANCH   4   5
ATOM      5  C   UNL     1      -0.521  -1.546  -7.474  0.00  0.00    +0.000 A 
ATOM      6  C   UNL     1      -1.682  -1.616  -8.218  0.00  0.00    +0.000 A 
ATOM      7  C   UNL     1      -2.598  -0.573  -8.105  0.00  0.00    +0.000 A 
ATOM      8  C   UNL     1      -2.394   0.528  -7.285  0.00  0.00    +0.000 A 
ATOM      9  C   UNL     1      -1.218   0.576  -6.577  0.00  0.00    +0.000 A 
ATOM     10  C   UNL     1      -0.277  -0.459  -6.659  0.00  0.00    +0.000 A 
BRANCH   8  11
ATOM     11  O   UNL     1      -3.316   1.567  -7.224  0.00  0.00    +0.000 OA
ATOM     12  C   UNL     1      -4.656   1.221  -7.597  0.00  0.00    +0.000 C 
ENDBRANCH   8  11
ENDBRANCH   4   5
ENDBRANCH   1   3
BRANCH   1  13
ATOM     13  O   UNL     1       3.048  -4.542  -6.865  0.00  0.00    +0.000 OA
BRANCH  13  14
ATOM     14  C   UNL     1       4.015  -4.578  -5.768  0.00  0.00    +0.000 C 
BRANCH  14  15
ATOM     15  C   UNL     1       4.827  -5.856  -5.707  0.00  0.00    +0.000 C 
ATOM     16  C   UNL     1       6.370  -5.527  -5.774  0.00  0.00    +0.000 C 
ENDBRANCH  14  15
BRANCH  14  17
ATOM     17  C   UNL     1       3.330  -4.390  -4.444  0.00  0.00    +0.000 C 
BRANCH  17  18
ATOM     18  C   UNL     1       3.887  -3.164  -3.699  0.00  0.00    +0.000 C 
BRANCH  18  20
ATOM     19  C   UNL     1       1.647  -2.174  -3.222  0.00  0.00    +0.000 C 
ATOM     20  C   UNL     1       2.965  -2.680  -2.609  0.00  0.00    +0.000 C 
ENDBRANCH  18  20
ENDBRANCH  17  18
ENDBRANCH  14  17
ENDBRANCH  13  14
ENDBRANCH   1  13
TORSDOF 9
ENDMDL
MODEL 2
REMARK VINA RESULT:      -4.3      2.061      2.842
REMARK  Name = bg33_2_ligand
REMARK  12 active torsions:
REMARK  status: ('A' for Active; 'I' for Inactive)
REMARK    1  A    between atoms: C_1  and  C_2
REMARK    2  A    between atoms: C_2  and  C_3
REMARK    3  A    between atoms: C_3  and  C_4
REMARK    4  A    between atoms: C_4  and  C_5
REMARK    5  A    between atoms: C_5  and  C_6
REMARK    6  A    between atoms: C_5  and  O_8
REMARK    7  A    between atoms: C_6  and  C_7
REMARK    8  A    between atoms: O_8  and  C_9
REMARK    9  A    between atoms: C_9  and  C_11
REMARK   10  A    between atoms: C_12  and  C_13
REMARK   11  A    between atoms: C_16  and  O_17
REMARK   12  A    between atoms: O_17  and  C_18
REMARK                            x       y       z     vdW  Elec       q    Type
REMARK                         _______ _______ _______ _____ _____    ______ ____
ROOT
ATOM      1  C   UNL     1      -0.047  -3.676  -7.723  0.00  0.00    +0.000 C 
ATOM      2  O   UNL     1      -1.096  -4.144  -8.105  0.00  0.00    +0.000 OA
ENDROOT
BRANCH   1   3
ATOM      3  C   UNL     1       0.076  -2.189  -7.560  0.00  0.00    +0.000 C 
ATOM      4  C   UNL     1      -0.961  -1.307  -7.715  0.00  0.00    +0.000 C 
BRANCH   4   5
ATOM      5  C   UNL     1      -0.770   0.155  -7.388  0.00  0.00    +0.000 A 
ATOM      6  C   UNL     1       0.284   0.861  -7.933  0.00  0.00    +0.000 A 
ATOM      7  C   UNL     1       0.428   2.200  -7.580  0.00  0.00    +0.000 A 
ATOM      8  C   UNL     1      -0.433   2.851  -6.708  0.00  0.00    +0.000 A 
ATOM      9  C   UNL     1      -1.457   2.113  -6.167  0.00  0.00    +0.000 A 
ATOM     10  C   UNL     1      -1.639   0.765  -6.505  0.00  0.00    +0.000 A 
BRANCH   8  11
ATOM     11  O   UNL     1      -0.237   4.181  -6.353  0.00  0.00    +0.000 OA
ATOM     12  C   UNL     1      -0.535   4.503  -4.989  0.00  0.00    +0.000 C 
ENDBRANCH   8  11
ENDBRANCH   4   5
ENDBRANCH   1   3
BRANCH   1  13
ATOM     13  O   UNL     1       1.055  -4.551  -7.502  0.00  0.00    +0.000 OA
BRANCH  13  14
ATOM     14  C   UNL     1       1.883  -4.333  -6.315  0.00  0.00    +0.000 C 
BRANCH  14  15
ATOM     15  C   UNL     1       3.174  -5.126  -6.314  0.00  0.00    +0.000 C 
ATOM     16  C   UNL     1       3.069  -6.344  -7.313  0.00  0.00    +0.000 C 
ENDBRANCH  14  15
BRANCH  14  17
ATOM     17  C   UNL     1       1.122  -4.666  -5.063  0.00  0.00    +0.000 C 
BRANCH  17  18
ATOM     18  C   UNL     1       2.018  -4.541  -3.818  0.00  0.00    +0.000 C 
BRANCH  18  20
ATOM     19  C   UNL     1       1.938  -2.165  -3.060  0.00  0.00    +0.000 C 
ATOM     20  C   UNL     1       1.449  -3.599  -2.787  0.00  0.00    +0.000 C 
ENDBRANCH  18  20
ENDBRANCH  17  18
ENDBRANCH  14  17
ENDBRANCH  13  14
ENDBRANCH   1  13
TORSDOF 9
ENDMDL
MODEL 3
REMARK VINA RESULT:      -4.2      4.027      6.282
REMARK  Name = bg33_2_ligand
REMARK  12 active torsions:
REMARK  status: ('A' for Active; 'I' for Inactive)
REMARK    1  A    between atoms: C_1  and  C_2
REMARK    2  A    between atoms: C_2  and  C_3
REMARK    3  A    between atoms: C_3  and  C_4
REMARK    4  A    between atoms: C_4  and  C_5
REMARK    5  A    between atoms: C_5  and  C_6
REMARK    6  A    between atoms: C_5  and  O_8
REMARK    7  A    between atoms: C_6  and  C_7
REMARK    8  A    between atoms: O_8  and  C_9
REMARK    9  A    between atoms: C_9  and  C_11
REMARK   10  A    between atoms: C_12  and  C_13
REMARK   11  A    between atoms: C_16  and  O_17
REMARK   12  A    between atoms: O_17  and  C_18
REMARK                            x       y       z     vdW  Elec       q    Type
REMARK                         _______ _______ _______ _____ _____    ______ ____
ROOT
ATOM      1  C   UNL     1       2.216  -2.558  -2.923  0.00  0.00    +0.000 C 
ATOM      2  O   UNL     1       1.992  -1.616  -2.196  0.00  0.00    +0.000 OA
ENDROOT
BRANCH   1   3
ATOM      3  C   UNL     1       1.186  -3.642  -3.056  0.00  0.00    +0.000 C 
ATOM      4  C   UNL     1       0.689  -4.368  -2.005  0.00  0.00    +0.000 C 
BRANCH   4   5
ATOM      5  C   UNL     1      -0.450  -5.336  -2.223  0.00  0.00    +0.000 A 
ATOM      6  C   UNL     1      -0.610  -5.963  -3.442  0.00  0.00    +0.000 A 
ATOM      7  C   UNL     1      -1.690  -6.829  -3.598  0.00  0.00    +0.000 A 
ATOM      8  C   UNL     1      -2.607  -7.084  -2.589  0.00  0.00    +0.000 A 
ATOM      9  C   UNL     1      -2.431  -6.425  -1.396  0.00  0.00    +0.000 A 
ATOM     10  C   UNL     1      -1.351  -5.554  -1.200  0.00  0.00    +0.000 A 
BRANCH   8  11
ATOM     11  O   UNL     1      -3.693  -7.929  -2.793  0.00  0.00    +0.000 OA
ATOM     12  C   UNL     1      -3.459  -9.023  -3.689  0.00  0.00    +0.000 C 
ENDBRANCH   8  11
ENDBRANCH   4   5
ENDBRANCH   1   3
BRANCH   1  13
ATOM     13  O   UNL     1       3.479  -2.635  -3.577  0.00  0.00    +0.000 OA
BRANCH  13  14
ATOM     14  C   UNL     1       4.045  -3.960  -3.832  0.00  0.00    +0.000 C 
BRANCH  14  15
ATOM     15  C   UNL     1       5.381  -4.196  -3.160  0.00  0.00    +0.000 C 
ATOM     16  C   UNL     1       5.256  -3.973  -1.601  0.00  0.00    +0.000 C 
ENDBRANCH  14  15
BRANCH  14  17
ATOM     17  C   UNL     1       4.209  -4.196  -5.307  0.00  0.00    +0.000 C 
BRANCH  17  18
ATOM     18  C   UNL     1       3.052  -5.041  -5.868  0.00  0.00    +0.000 C 
BRANCH  18  20
ATOM     19  C   UNL     1       0.726  -4.533  -6.615  0.00  0.00    +0.000 C 
ATOM     20  C   UNL     1       2.223  -4.291  -6.878  0.00  0.00    +0.000 C 
ENDBRANCH  18  20
ENDBRANCH  17  18
ENDBRANCH  14  17
ENDBRANCH  13  14
ENDBRANCH   1  13
TORSDOF 9
ENDMDL
MODEL 4
REMARK VINA RESULT:      -4.1      3.144      4.355
REMARK  Name = bg33_2_ligand
REMARK  12 active torsions:
REMARK  status: ('A' for Active; 'I' for Inactive)
REMARK    1  A    between atoms: C_1  and  C_2
REMARK    2  A    between atoms: C_2  and  C_3
REMARK    3  A    between atoms: C_3  and  C_4
REMARK    4  A    between atoms: C_4  and  C_5
REMARK    5  A    between atoms: C_5  and  C_6
REMARK    6  A    between atoms: C_5  and  O_8
REMARK    7  A    between atoms: C_6  and  C_7
REMARK    8  A    between atoms: O_8  and  C_9
REMARK    9  A    between atoms: C_9  and  C_11
REMARK   10  A    between atoms: C_12  and  C_13
REMARK   11  A    between atoms: C_16  and  O_17
REMARK   12  A    between atoms: O_17  and  C_18
REMARK                            x       y       z     vdW  Elec       q    Type
REMARK                         _______ _______ _______ _____ _____    ______ ____
ROOT
ATOM      1  C   UNL     1       5.536  -5.061  -4.869  0.00  0.00    +0.000 C 
ATOM      2  O   UNL     1       6.612  -5.043  -5.424  0.00  0.00    +0.000 OA
ENDROOT
BRANCH   1   3
ATOM      3  C   UNL     1       4.300  -4.732  -5.654  0.00  0.00    +0.000 C 
ATOM      4  C   UNL     1       3.164  -5.500  -5.665  0.00  0.00    +0.000 C 
BRANCH   4   5
ATOM      5  C   UNL     1       1.923  -5.008  -6.370  0.00  0.00    +0.000 A 
ATOM      6  C   UNL     1       1.981  -3.907  -7.200  0.00  0.00    +0.000 A 
ATOM      7  C   UNL     1       0.803  -3.481  -7.809  0.00  0.00    +0.000 A 
ATOM      8  C   UNL     1      -0.419  -4.110  -7.616  0.00  0.00    +0.000 A 
ATOM      9  C   UNL     1      -0.445  -5.189  -6.766  0.00  0.00    +0.000 A 
ATOM     10  C   UNL     1       0.722  -5.651  -6.143  0.00  0.00    +0.000 A 
BRANCH   8  11
ATOM     11  O   UNL     1      -1.581  -3.635  -8.215  0.00  0.00    +0.000 OA
ATOM     12  C   UNL     1      -2.739  -4.464  -8.050  0.00  0.00    +0.000 C 
ENDBRANCH   8  11
ENDBRANCH   4   5
ENDBRANCH   1   3
BRANCH   1  13
ATOM     13  O   UNL     1       5.490  -5.333  -3.472  0.00  0.00    +0.000 OA
BRANCH  13  14
ATOM     14  C   UNL     1       5.110  -4.247  -2.569  0.00  0.00    +0.000 C 
BRANCH  14  15
ATOM     15  C   UNL     1       6.236  -3.767  -1.677  0.00  0.00    +0.000 C 
ATOM     16  C   UNL     1       7.467  -4.753  -1.773  0.00  0.00    +0.000 C 
ENDBRANCH  14  15
BRANCH  14  17
ATOM     17  C   UNL     1       3.957  -4.655  -1.696  0.00  0.00    +0.000 C 
BRANCH  17  18
ATOM     18  C   UNL     1       2.630  -4.076  -2.219  0.00  0.00    +0.000 C 
BRANCH  18  20
ATOM     19  C   UNL     1       1.696  -2.337  -3.744  0.00  0.00    +0.000 C 
ATOM     20  C   UNL     1       2.764  -2.647  -2.681  0.00  0.00    +0.000 C 
ENDBRANCH  18  20
ENDBRANCH  17  18
ENDBRANCH  14  17
ENDBRANCH  13  14
ENDBRANCH   1  13
TORSDOF 9
ENDMDL
MODEL 5
REMARK VINA RESULT:      -4.1      4.130      5.475
REMARK  Name = bg33_2_ligand
REMARK  12 active torsions:
REMARK  status: ('A' for Active; 'I' for Inactive)
REMARK    1  A    between atoms: C_1  and  C_2
REMARK    2  A    between atoms: C_2  and  C_3
REMARK    3  A    between atoms: C_3  and  C_4
REMARK    4  A    between atoms: C_4  and  C_5
REMARK    5  A    between atoms: C_5  and  C_6
REMARK    6  A    between atoms: C_5  and  O_8
REMARK    7  A    between atoms: C_6  and  C_7
REMARK    8  A    between atoms: O_8  and  C_9
REMARK    9  A    between atoms: C_9  and  C_11
REMARK   10  A    between atoms: C_12  and  C_13
REMARK   11  A    between atoms: C_16  and  O_17
REMARK   12  A    between atoms: O_17  and  C_18
REMARK                            x       y       z     vdW  Elec       q    Type
REMARK                         _______ _______ _______ _____ _____    ______ ____
ROOT
ATOM      1  C   UNL     1       1.918  -4.763  -6.529  0.00  0.00    +0.000 C 
ATOM      2  O   UNL     1       1.552  -5.151  -7.616  0.00  0.00    +0.000 OA
ENDROOT
BRANCH   1   3
ATOM      3  C   UNL     1       0.966  -4.822  -5.370  0.00  0.00    +0.000 C 
ATOM      4  C   UNL     1       0.625  -5.974  -4.709  0.00  0.00    +0.000 C 
BRANCH   4   5
ATOM      5  C   UNL     1      -0.228  -5.910  -3.464  0.00  0.00    +0.000 A 
ATOM      6  C   UNL     1      -1.477  -6.497  -3.442  0.00  0.00    +0.000 A 
ATOM      7  C   UNL     1      -2.232  -6.389  -2.277  0.00  0.00    +0.000 A 
ATOM      8  C   UNL     1      -1.787  -5.719  -1.146  0.00  0.00    +0.000 A 
ATOM      9  C   UNL     1      -0.549  -5.127  -1.210  0.00  0.00    +0.000 A 
ATOM     10  C   UNL     1       0.242  -5.222  -2.362  0.00  0.00    +0.000 A 
BRANCH   8  11
ATOM     11  O   UNL     1      -2.584  -5.603  -0.011  0.00  0.00    +0.000 OA
ATOM     12  C   UNL     1      -1.886  -5.278   1.198  0.00  0.00    +0.000 C 
ENDBRANCH   8  11
ENDBRANCH   4   5
ENDBRANCH   1   3
BRANCH   1  13
ATOM     13  O   UNL     1       3.222  -4.205  -6.404  0.00  0.00    +0.000 OA
BRANCH  13  14
ATOM     14  C   UNL     1       4.271  -5.027  -5.799  0.00  0.00    +0.000 C 
BRANCH  14  15
ATOM     15  C   UNL     1       4.134  -6.507  -6.089  0.00  0.00    +0.000 C 
ATOM     16  C   UNL     1       4.006  -7.319  -4.740  0.00  0.00    +0.000 C 
ENDBRANCH  14  15
BRANCH  14  17
ATOM     17  C   UNL     1       4.306  -4.838  -4.308  0.00  0.00    +0.000 C 
BRANCH  17  18
ATOM     18  C   UNL     1       4.155  -3.354  -3.931  0.00  0.00    +0.000 C 
BRANCH  18  20
ATOM     19  C   UNL     1       2.208  -2.088  -3.019  0.00  0.00    +0.000 C 
ATOM     20  C   UNL     1       3.282  -3.149  -2.720  0.00  0.00    +0.000 C 
ENDBRANCH  18  20
ENDBRANCH  17  18
ENDBRANCH  14  17
ENDBRANCH  13  14
ENDBRANCH   1  13
TORSDOF 9
ENDMDL
MODEL 6
REMARK VINA RESULT:      -4.1      3.688      6.816
REMARK  Name = bg33_2_ligand
REMARK  12 active torsions:
REMARK  status: ('A' for Active; 'I' for Inactive)
REMARK    1  A    between atoms: C_1  and  C_2
REMARK    2  A    between atoms: C_2  and  C_3
REMARK    3  A    between atoms: C_3  and  C_4
REMARK    4  A    between atoms: C_4  and  C_5
REMARK    5  A    between atoms: C_5  and  C_6
REMARK    6  A    between atoms: C_5  and  O_8
REMARK    7  A    between atoms: C_6  and  C_7
REMARK    8  A    between atoms: O_8  and  C_9
REMARK    9  A    between atoms: C_9  and  C_11
REMARK   10  A    between atoms: C_12  and  C_13
REMARK   11  A    between atoms: C_16  and  O_17
REMARK   12  A    between atoms: O_17  and  C_18
REMARK                            x       y       z     vdW  Elec       q    Type
REMARK                         _______ _______ _______ _____ _____    ______ ____
ROOT
ATOM      1  C   UNL     1       0.785  -4.014  -6.793  0.00  0.00    +0.000 C 
ATOM      2  O   UNL     1       1.091  -3.350  -7.759  0.00  0.00    +0.000 OA
ENDROOT
BRANCH   1   3
ATOM      3  C   UNL     1       1.680  -4.010  -5.589  0.00  0.00    +0.000 C 
ATOM      4  C   UNL     1       1.574  -3.120  -4.551  0.00  0.00    +0.000 C 
BRANCH   4   5
ATOM      5  C   UNL     1       2.427  -3.290  -3.316  0.00  0.00    +0.000 A 
ATOM      6  C   UNL     1       1.852  -3.270  -2.061  0.00  0.00    +0.000 A 
ATOM      7  C   UNL     1       2.686  -3.407  -0.955  0.00  0.00    +0.000 A 
ATOM      8  C   UNL     1       4.062  -3.559  -1.058  0.00  0.00    +0.000 A 
ATOM      9  C   UNL     1       4.604  -3.552  -2.321  0.00  0.00    +0.000 A 
ATOM     10  C   UNL     1       3.794  -3.424  -3.457  0.00  0.00    +0.000 A 
BRANCH   8  11
ATOM     11  O   UNL     1       4.867  -3.660   0.072  0.00  0.00    +0.000 OA
ATOM     12  C   UNL     1       4.228  -3.333   1.312  0.00  0.00    +0.000 C 
ENDBRANCH   8  11
ENDBRANCH   4   5
ENDBRANCH   1   3
BRANCH   1  13
ATOM     13  O   UNL     1      -0.382  -4.826  -6.861  0.00  0.00    +0.000 OA
BRANCH  13  14
ATOM     14  C   UNL     1      -0.472  -5.982  -5.969  0.00  0.00    +0.000 C 
BRANCH  14  15
ATOM     15  C   UNL     1       0.067  -7.264  -6.569  0.00  0.00    +0.000 C 
ATOM     16  C   UNL     1       1.398  -7.693  -5.837  0.00  0.00    +0.000 C 
ENDBRANCH  14  15
BRANCH  14  17
ATOM     17  C   UNL     1      -1.893  -6.220  -5.543  0.00  0.00    +0.000 C 
BRANCH  17  18
ATOM     18  C   UNL     1      -1.994  -6.405  -4.018  0.00  0.00    +0.000 C 
BRANCH  18  20
ATOM     19  C   UNL     1      -1.178  -5.306  -1.933  0.00  0.00    +0.000 C 
ATOM     20  C   UNL     1      -0.772  -5.903  -3.292  0.00  0.00    +0.000 C 
ENDBRANCH  18  20
ENDBRANCH  17  18
ENDBRANCH  14  17
ENDBRANCH  13  14
ENDBRANCH   1  13
TORSDOF 9
ENDMDL
MODEL 7
REMARK VINA RESULT:      -4.1      2.737      6.548
REMARK  Name = bg33_2_ligand
REMARK  12 active torsions:
REMARK  status: ('A' for Active; 'I' for Inactive)
REMARK    1  A    between atoms: C_1  and  C_2
REMARK    2  A    between atoms: C_2  and  C_3
REMARK    3  A    between atoms: C_3  and  C_4
REMARK    4  A    between atoms: C_4  and  C_5
REMARK    5  A    between atoms: C_5  and  C_6
REMARK    6  A    between atoms: C_5  and  O_8
REMARK    7  A    between atoms: C_6  and  C_7
REMARK    8  A    between atoms: O_8  and  C_9
REMARK    9  A    between atoms: C_9  and  C_11
REMARK   10  A    between atoms: C_12  and  C_13
REMARK   11  A    between atoms: C_16  and  O_17
REMARK   12  A    between atoms: O_17  and  C_18
REMARK                            x       y       z     vdW  Elec       q    Type
REMARK                         _______ _______ _______ _____ _____    ______ ____
ROOT
ATOM      1  C   UNL     1       1.361  -5.874  -7.491  0.00  0.00    +0.000 C 
ATOM      2  O   UNL     1       2.111  -6.605  -8.099  0.00  0.00    +0.000 OA
ENDROOT
BRANCH   1   3
ATOM      3  C   UNL     1       1.722  -5.448  -6.098  0.00  0.00    +0.000 C 
ATOM      4  C   UNL     1       2.261  -4.228  -5.778  0.00  0.00    +0.000 C 
BRANCH   4   5
ATOM      5  C   UNL     1       2.454  -3.840  -4.332  0.00  0.00    +0.000 A 
ATOM      6  C   UNL     1       3.694  -3.436  -3.877  0.00  0.00    +0.000 A 
ATOM      7  C   UNL     1       3.823  -3.110  -2.529  0.00  0.00    +0.000 A 
ATOM      8  C   UNL     1       2.769  -3.176  -1.630  0.00  0.00    +0.000 A 
ATOM      9  C   UNL     1       1.555  -3.604  -2.111  0.00  0.00    +0.000 A 
ATOM     10  C   UNL     1       1.386  -3.932  -3.463  0.00  0.00    +0.000 A 
BRANCH   8  11
ATOM     11  O   UNL     1       2.945  -2.875  -0.283  0.00  0.00    +0.000 OA
ATOM     12  C   UNL     1       3.045  -4.007   0.591  0.00  0.00    +0.000 C 
ENDBRANCH   8  11
ENDBRANCH   4   5
ENDBRANCH   1   3
BRANCH   1  13
ATOM     13  O   UNL     1       0.130  -5.495  -8.098  0.00  0.00    +0.000 OA
BRANCH  13  14
ATOM     14  C   UNL     1      -0.886  -4.857  -7.260  0.00  0.00    +0.000 C 
BRANCH  14  15
ATOM     15  C   UNL     1      -2.000  -5.788  -6.828  0.00  0.00    +0.000 C 
ATOM     16  C   UNL     1      -1.759  -6.279  -5.347  0.00  0.00    +0.000 C 
ENDBRANCH  14  15
BRANCH  14  17
ATOM     17  C   UNL     1      -1.500  -3.681  -7.966  0.00  0.00    +0.000 C 
BRANCH  17  18
ATOM     18  C   UNL     1      -0.457  -2.577  -8.218  0.00  0.00    +0.000 C 
BRANCH  18  20
ATOM     19  C   UNL     1      -0.312  -0.327  -7.151  0.00  0.00    +0.000 C 
ATOM     20  C   UNL     1      -0.082  -1.836  -6.960  0.00  0.00    +0.000 C 
ENDBRANCH  18  20
ENDBRANCH  17  18
ENDBRANCH  14  17
ENDBRANCH  13  14
ENDBRANCH   1  13
TORSDOF 9
ENDMDL
MODEL 8
REMARK VINA RESULT:      -4.1      4.143      6.329
REMARK  Name = bg33_2_ligand
REMARK  12 active torsions:
REMARK  status: ('A' for Active; 'I' for Inactive)
REMARK    1  A    between atoms: C_1  and  C_2
REMARK    2  A    between atoms: C_2  and  C_3
REMARK    3  A    between atoms: C_3  and  C_4
REMARK    4  A    between atoms: C_4  and  C_5
REMARK    5  A    between atoms: C_5  and  C_6
REMARK    6  A    between atoms: C_5  and  O_8
REMARK    7  A    between atoms: C_6  and  C_7
REMARK    8  A    between atoms: O_8  and  C_9
REMARK    9  A    between atoms: C_9  and  C_11
REMARK   10  A    between atoms: C_12  and  C_13
REMARK   11  A    between atoms: C_16  and  O_17
REMARK   12  A    between atoms: O_17  and  C_18
REMARK                            x       y       z     vdW  Elec       q    Type
REMARK                         _______ _______ _______ _____ _____    ______ ____
ROOT
ATOM      1  C   UNL     1      -0.614  -6.050  -6.863  0.00  0.00    +0.000 C 
ATOM      2  O   UNL     1      -1.330  -6.278  -7.812  0.00  0.00    +0.000 OA
ENDROOT
BRANCH   1   3
ATOM      3  C   UNL     1      -1.187  -6.124  -5.478  0.00  0.00    +0.000 C 
ATOM      4  C   UNL     1      -0.452  -6.386  -4.350  0.00  0.00    +0.000 C 
BRANCH   4   5
ATOM      5  C   UNL     1      -1.094  -6.294  -2.987  0.00  0.00    +0.000 A 
ATOM      6  C   UNL     1      -2.187  -7.079  -2.676  0.00  0.00    +0.000 A 
ATOM      7  C   UNL     1      -2.756  -6.939  -1.412  0.00  0.00    +0.000 A 
ATOM      8  C   UNL     1      -2.278  -6.050  -0.461  0.00  0.00    +0.000 A 
ATOM      9  C   UNL     1      -1.204  -5.268  -0.812  0.00  0.00    +0.000 A 
ATOM     10  C   UNL     1      -0.600  -5.387  -2.071  0.00  0.00    +0.000 A 
BRANCH   8  11
ATOM     11  O   UNL     1      -2.894  -5.914   0.779  0.00  0.00    +0.000 OA
ATOM     12  C   UNL     1      -2.348  -4.896   1.627  0.00  0.00    +0.000 C 
ENDBRANCH   8  11
ENDBRANCH   4   5
ENDBRANCH   1   3
BRANCH   1  13
ATOM     13  O   UNL     1       0.734  -5.658  -7.099  0.00  0.00    +0.000 OA
BRANCH  13  14
ATOM     14  C   UNL     1       1.124  -4.288  -6.762  0.00  0.00    +0.000 C 
BRANCH  14  15
ATOM     15  C   UNL     1       1.161  -3.350  -7.950  0.00  0.00    +0.000 C 
ATOM     16  C   UNL     1       0.070  -2.220  -7.788  0.00  0.00    +0.000 C 
ENDBRANCH  14  15
BRANCH  14  17
ATOM     17  C   UNL     1       2.472  -4.264  -6.098  0.00  0.00    +0.000 C 
BRANCH  17  18
ATOM     18  C   UNL     1       2.338  -4.133  -4.570  0.00  0.00    +0.000 C 
BRANCH  18  20
ATOM     19  C   UNL     1       1.854  -2.579  -2.680  0.00  0.00    +0.000 C 
ATOM     20  C   UNL     1       1.577  -2.899  -4.159  0.00  0.00    +0.000 C 
ENDBRANCH  18  20
ENDBRANCH  17  18
ENDBRANCH  14  17
ENDBRANCH  13  14
ENDBRANCH   1  13
TORSDOF 9
ENDMDL
MODEL 9
REMARK VINA RESULT:      -4.0      5.091      7.001
REMARK  Name = bg33_2_ligand
REMARK  12 active torsions:
REMARK  status: ('A' for Active; 'I' for Inactive)
REMARK    1  A    between atoms: C_1  and  C_2
REMARK    2  A    between atoms: C_2  and  C_3
REMARK    3  A    between atoms: C_3  and  C_4
REMARK    4  A    between atoms: C_4  and  C_5
REMARK    5  A    between atoms: C_5  and  C_6
REMARK    6  A    between atoms: C_5  and  O_8
REMARK    7  A    between atoms: C_6  and  C_7
REMARK    8  A    between atoms: O_8  and  C_9
REMARK    9  A    between atoms: C_9  and  C_11
REMARK   10  A    between atoms: C_12  and  C_13
REMARK   11  A    between atoms: C_16  and  O_17
REMARK   12  A    between atoms: O_17  and  C_18
REMARK                            x       y       z     vdW  Elec       q    Type
REMARK                         _______ _______ _______ _____ _____    ______ ____
ROOT
ATOM      1  C   UNL     1       1.703  -4.367  -0.808  0.00  0.00    +0.000 C 
ATOM      2  O   UNL     1       2.545  -4.637   0.019  0.00  0.00    +0.000 OA
ENDROOT
BRANCH   1   3
ATOM      3  C   UNL     1       0.496  -5.249  -0.941  0.00  0.00    +0.000 C 
ATOM      4  C   UNL     1      -0.575  -4.975  -1.751  0.00  0.00    +0.000 C 
BRANCH   4   5
ATOM      5  C   UNL     1      -1.674  -5.995  -1.927  0.00  0.00    +0.000 A 
ATOM      6  C   UNL     1      -2.266  -6.581  -0.825  0.00  0.00    +0.000 A 
ATOM      7  C   UNL     1      -3.259  -7.533  -1.043  0.00  0.00    +0.000 A 
ATOM      8  C   UNL     1      -3.674  -7.917  -2.309  0.00  0.00    +0.000 A 
ATOM      9  C   UNL     1      -3.049  -7.331  -3.383  0.00  0.00    +0.000 A 
ATOM     10  C   UNL     1      -2.052  -6.364  -3.203  0.00  0.00    +0.000 A 
BRANCH   8  11
ATOM     11  O   UNL     1      -4.646  -8.897  -2.487  0.00  0.00    +0.000 OA
ATOM     12  C   UNL     1      -5.962  -8.409  -2.780  0.00  0.00    +0.000 C 
ENDBRANCH   8  11
ENDBRANCH   4   5
ENDBRANCH   1   3
BRANCH   1  13
ATOM     13  O   UNL     1       1.921  -3.254  -1.670  0.00  0.00    +0.000 OA
BRANCH  13  14
ATOM     14  C   UNL     1       2.540  -3.500  -2.973  0.00  0.00    +0.000 C 
BRANCH  14  15
ATOM     15  C   UNL     1       3.911  -2.875  -3.129  0.00  0.00    +0.000 C 
ATOM     16  C   UNL     1       5.030  -3.884  -2.657  0.00  0.00    +0.000 C 
ENDBRANCH  14  15
BRANCH  14  17
ATOM     17  C   UNL     1       1.663  -3.001  -4.086  0.00  0.00    +0.000 C 
BRANCH  17  18
ATOM     18  C   UNL     1       1.583  -4.024  -5.233  0.00  0.00    +0.000 C 
BRANCH  18  20
ATOM     19  C   UNL     1       2.166  -6.436  -5.489  0.00  0.00    +0.000 C 
ATOM     20  C   UNL     1       1.283  -5.419  -4.746  0.00  0.00    +0.000 C 
ENDBRANCH  18  20
ENDBRANCH  17  18
ENDBRANCH  14  17
ENDBRANCH  13  14
ENDBRANCH   1  13
TORSDOF 9
ENDMDL
