REMARK  Name = bg33_1_ligand
REMARK  12 active torsions:
REMARK  status: ('A' for Active; 'I' for Inactive)
REMARK    1  A    between atoms: C_1  and  C_2
REMARK    2  A    between atoms: C_2  and  C_3
REMARK    3  A    between atoms: C_3  and  C_4
REMARK    4  A    between atoms: C_4  and  C_5
REMARK    5  A    between atoms: C_5  and  C_6
REMARK    6  A    between atoms: C_5  and  O_8
REMARK    7  A    between atoms: C_6  and  C_7
REMARK    8  A    between atoms: O_8  and  C_9
REMARK    9  A    between atoms: C_9  and  C_11
REMARK   10  A    between atoms: C_12  and  C_13
REMARK   11  A    between atoms: C_16  and  O_17
REMARK   12  A    between atoms: O_17  and  C_18
REMARK                            x       y       z     vdW  Elec       q    Type
REMARK                         _______ _______ _______ _____ _____    ______ ____
ROOT
ATOM      1  C   UNL     1      -6.743   1.699  -0.382  0.00  0.00    +0.000 C 
ATOM      2  O   UNL     1      -6.948   0.653  -0.936  0.00  0.00    +0.000 OA
ENDROOT
BRANCH   1   3
ATOM      3  C   UNL     1      -7.052   1.871   0.981  0.00  0.00    +0.000 C 
ATOM      4  C   UNL     1      -8.087   1.312   1.425  0.00  0.00    +0.000 C 
BRANCH   4   5
ATOM      5  C   UNL     1      -8.600   1.511   2.688  0.00  0.00    +0.000 A 
ATOM      6  C   UNL     1      -7.867   1.278   3.786  0.00  0.00    +0.000 A 
ATOM      7  C   UNL     1      -8.356   1.467   5.037  0.00  0.00    +0.000 A 
ATOM      8  C   UNL     1      -9.629   1.945   5.141  0.00  0.00    +0.000 A 
ATOM      9  C   UNL     1     -10.387   2.201   4.094  0.00  0.00    +0.000 A 
ATOM     10  C   UNL     1      -9.881   1.959   2.863  0.00  0.00    +0.000 A 
BRANCH   8  11
ATOM     11  O   UNL     1     -10.171   2.142   6.319  0.00  0.00    +0.000 OA
ATOM     12  C   UNL     1     -10.606   3.442   6.526  0.00  0.00    +0.000 C 
ENDBRANCH   8  11
ENDBRANCH   4   5
ENDBRANCH   1   3
BRANCH   1  13
ATOM     13  O   UNL     1      -6.229   2.685  -1.036  0.00  0.00    +0.000 OA
BRANCH  13  14
ATOM     14  C   UNL     1      -6.093   2.430  -2.263  0.00  0.00    +0.000 C 
BRANCH  14  15
ATOM     15  C   UNL     1      -7.404   2.256  -2.951  0.00  0.00    +0.000 C 
ATOM     16  C   UNL     1      -8.243   3.389  -2.862  0.00  0.00    +0.000 C 
ENDBRANCH  14  15
BRANCH  14  17
ATOM     17  C   UNL     1      -5.087   3.151  -2.924  0.00  0.00    +0.000 C 
BRANCH  17  18
ATOM     18  C   UNL     1      -4.889   4.458  -2.409  0.00  0.00    +0.000 C 
BRANCH  18  20
ATOM     19  C   UNL     1      -2.516   4.287  -1.925  0.00  0.00    +0.000 C 
ATOM     20  C   UNL     1      -3.563   4.792  -2.892  0.00  0.00    +0.000 C 
ENDBRANCH  18  20
ENDBRANCH  17  18
ENDBRANCH  14  17
ENDBRANCH  13  14
ENDBRANCH   1  13
TORSDOF 9
