MODEL 1
REMARK VINA RESULT:      -3.6      0.000      0.000
REMARK  Name = bg33_1_ligand
REMARK  12 active torsions:
REMARK  status: ('A' for Active; 'I' for Inactive)
REMARK    1  A    between atoms: C_1  and  C_2
REMARK    2  A    between atoms: C_2  and  C_3
REMARK    3  A    between atoms: C_3  and  C_4
REMARK    4  A    between atoms: C_4  and  C_5
REMARK    5  A    between atoms: C_5  and  C_6
REMARK    6  A    between atoms: C_5  and  O_8
REMARK    7  A    between atoms: C_6  and  C_7
REMARK    8  A    between atoms: O_8  and  C_9
REMARK    9  A    between atoms: C_9  and  C_11
REMARK   10  A    between atoms: C_12  and  C_13
REMARK   11  A    between atoms: C_16  and  O_17
REMARK   12  A    between atoms: O_17  and  C_18
REMARK                            x       y       z     vdW  Elec       q    Type
REMARK                         _______ _______ _______ _____ _____    ______ ____
ROOT
ATOM      1  C   UNL     1      -2.473  -3.814   6.354  0.00  0.00    +0.000 C 
ATOM      2  O   UNL     1      -3.425  -4.545   6.402  0.00  0.00    +0.000 OA
ENDROOT
BRANCH   1   3
ATOM      3  C   UNL     1      -2.357  -2.840   5.343  0.00  0.00    +0.000 C 
ATOM      4  C   UNL     1      -3.374  -2.587   4.649  0.00  0.00    +0.000 C 
BRANCH   4   5
ATOM      5  C   UNL     1      -3.376  -1.779   3.534  0.00  0.00    +0.000 A 
ATOM      6  C   UNL     1      -2.997  -0.495   3.599  0.00  0.00    +0.000 A 
ATOM      7  C   UNL     1      -2.994   0.316   2.512  0.00  0.00    +0.000 A 
ATOM      8  C   UNL     1      -3.361  -0.239   1.322  0.00  0.00    +0.000 A 
ATOM      9  C   UNL     1      -3.731  -1.498   1.201  0.00  0.00    +0.000 A 
ATOM     10  C   UNL     1      -3.764  -2.265   2.315  0.00  0.00    +0.000 A 
BRANCH   8  11
ATOM     11  O   UNL     1      -3.392   0.487   0.230  0.00  0.00    +0.000 OA
ATOM     12  C   UNL     1      -4.504   0.258  -0.565  0.00  0.00    +0.000 C 
ENDBRANCH   8  11
ENDBRANCH   4   5
ENDBRANCH   1   3
BRANCH   1  13
ATOM     13  O   UNL     1      -1.540  -3.911   7.239  0.00  0.00    +0.000 OA
BRANCH  13  14
ATOM     14  C   UNL     1      -1.996  -4.052   8.406  0.00  0.00    +0.000 C 
BRANCH  14  15
ATOM     15  C   UNL     1      -1.336  -5.172   9.137  0.00  0.00    +0.000 C 
ATOM     16  C   UNL     1      -2.083  -6.371   9.124  0.00  0.00    +0.000 C 
ENDBRANCH  14  15
BRANCH  14  17
ATOM     17  C   UNL     1      -2.251  -2.862   9.104  0.00  0.00    +0.000 C 
BRANCH  17  18
ATOM     18  C   UNL     1      -3.498  -2.854   9.781  0.00  0.00    +0.000 C 
BRANCH  18  20
ATOM     19  C   UNL     1      -2.124  -0.973  10.468  0.00  0.00    +0.000 C 
ATOM     20  C   UNL     1      -3.284  -1.874  10.829  0.00  0.00    +0.000 C 
ENDBRANCH  18  20
ENDBRANCH  17  18
ENDBRANCH  14  17
ENDBRANCH  13  14
ENDBRANCH   1  13
TORSDOF 9
ENDMDL
MODEL 2
REMARK VINA RESULT:      -3.6     10.059     15.796
REMARK  Name = bg33_1_ligand
REMARK  12 active torsions:
REMARK  status: ('A' for Active; 'I' for Inactive)
REMARK    1  A    between atoms: C_1  and  C_2
REMARK    2  A    between atoms: C_2  and  C_3
REMARK    3  A    between atoms: C_3  and  C_4
REMARK    4  A    between atoms: C_4  and  C_5
REMARK    5  A    between atoms: C_5  and  C_6
REMARK    6  A    between atoms: C_5  and  O_8
REMARK    7  A    between atoms: C_6  and  C_7
REMARK    8  A    between atoms: O_8  and  C_9
REMARK    9  A    between atoms: C_9  and  C_11
REMARK   10  A    between atoms: C_12  and  C_13
REMARK   11  A    between atoms: C_16  and  O_17
REMARK   12  A    between atoms: O_17  and  C_18
REMARK                            x       y       z     vdW  Elec       q    Type
REMARK                         _______ _______ _______ _____ _____    ______ ____
ROOT
ATOM      1  C   UNL     1      -0.831   6.585  -8.545  0.00  0.00    +0.000 C 
ATOM      2  O   UNL     1      -1.060   6.017  -9.579  0.00  0.00    +0.000 OA
ENDROOT
BRANCH   1   3
ATOM      3  C   UNL     1      -1.067   5.959  -7.306  0.00  0.00    +0.000 C 
ATOM      4  C   UNL     1      -2.215   6.059  -6.805  0.00  0.00    +0.000 C 
BRANCH   4   5
ATOM      5  C   UNL     1      -2.553   5.636  -5.538  0.00  0.00    +0.000 A 
ATOM      6  C   UNL     1      -2.665   6.499  -4.518  0.00  0.00    +0.000 A 
ATOM      7  C   UNL     1      -2.995   6.100  -3.265  0.00  0.00    +0.000 A 
ATOM      8  C   UNL     1      -3.250   4.773  -3.082  0.00  0.00    +0.000 A 
ATOM      9  C   UNL     1      -3.167   3.886  -4.052  0.00  0.00    +0.000 A 
ATOM     10  C   UNL     1      -2.792   4.314  -5.280  0.00  0.00    +0.000 A 
BRANCH   8  11
ATOM     11  O   UNL     1      -3.565   4.314  -1.894  0.00  0.00    +0.000 OA
ATOM     12  C   UNL     1      -2.593   3.503  -1.330  0.00  0.00    +0.000 C 
ENDBRANCH   8  11
ENDBRANCH   4   5
ENDBRANCH   1   3
BRANCH   1  13
ATOM     13  O   UNL     1      -0.358   7.785  -8.559  0.00  0.00    +0.000 OA
BRANCH  13  14
ATOM     14  C   UNL     1       0.774   7.863  -8.010  0.00  0.00    +0.000 C 
BRANCH  14  15
ATOM     15  C   UNL     1       1.887   7.671  -8.983  0.00  0.00    +0.000 C 
ATOM     16  C   UNL     1       2.859   6.740  -8.554  0.00  0.00    +0.000 C 
ENDBRANCH  14  15
BRANCH  14  17
ATOM     17  C   UNL     1       0.909   8.865  -7.037  0.00  0.00    +0.000 C 
BRANCH  17  18
ATOM     18  C   UNL     1       1.231   8.370  -5.748  0.00  0.00    +0.000 C 
BRANCH  18  20
ATOM     19  C   UNL     1       0.332   8.459  -3.494  0.00  0.00    +0.000 C 
ATOM     20  C   UNL     1       0.108   8.816  -4.946  0.00  0.00    +0.000 C 
ENDBRANCH  18  20
ENDBRANCH  17  18
ENDBRANCH  14  17
ENDBRANCH  13  14
ENDBRANCH   1  13
TORSDOF 9
ENDMDL
MODEL 3
REMARK VINA RESULT:      -3.5      1.972      3.217
REMARK  Name = bg33_1_ligand
REMARK  12 active torsions:
REMARK  status: ('A' for Active; 'I' for Inactive)
REMARK    1  A    between atoms: C_1  and  C_2
REMARK    2  A    between atoms: C_2  and  C_3
REMARK    3  A    between atoms: C_3  and  C_4
REMARK    4  A    between atoms: C_4  and  C_5
REMARK    5  A    between atoms: C_5  and  C_6
REMARK    6  A    between atoms: C_5  and  O_8
REMARK    7  A    between atoms: C_6  and  C_7
REMARK    8  A    between atoms: O_8  and  C_9
REMARK    9  A    between atoms: C_9  and  C_11
REMARK   10  A    between atoms: C_12  and  C_13
REMARK   11  A    between atoms: C_16  and  O_17
REMARK   12  A    between atoms: O_17  and  C_18
REMARK                            x       y       z     vdW  Elec       q    Type
REMARK                         _______ _______ _______ _____ _____    ______ ____
ROOT
ATOM      1  C   UNL     1      -5.056  -1.521   8.578  0.00  0.00    +0.000 C 
ATOM      2  O   UNL     1      -6.113  -2.091   8.568  0.00  0.00    +0.000 OA
ENDROOT
BRANCH   1   3
ATOM      3  C   UNL     1      -4.534  -0.938   7.407  0.00  0.00    +0.000 C 
ATOM      4  C   UNL     1      -4.804  -1.483   6.307  0.00  0.00    +0.000 C 
BRANCH   4   5
ATOM      5  C   UNL     1      -4.246  -1.123   5.100  0.00  0.00    +0.000 A 
ATOM      6  C   UNL     1      -3.630   0.056   4.938  0.00  0.00    +0.000 A 
ATOM      7  C   UNL     1      -3.077   0.428   3.757  0.00  0.00    +0.000 A 
ATOM      8  C   UNL     1      -3.137  -0.470   2.732  0.00  0.00    +0.000 A 
ATOM      9  C   UNL     1      -3.720  -1.646   2.843  0.00  0.00    +0.000 A 
ATOM     10  C   UNL     1      -4.300  -1.965   4.023  0.00  0.00    +0.000 A 
BRANCH   8  11
ATOM     11  O   UNL     1      -2.632  -0.174   1.558  0.00  0.00    +0.000 OA
ATOM     12  C   UNL     1      -3.407  -0.602   0.491  0.00  0.00    +0.000 C 
ENDBRANCH   8  11
ENDBRANCH   4   5
ENDBRANCH   1   3
BRANCH   1  13
ATOM     13  O   UNL     1      -4.382  -1.432   9.675  0.00  0.00    +0.000 OA
BRANCH  13  14
ATOM     14  C   UNL     1      -3.189  -1.817   9.539  0.00  0.00    +0.000 C 
BRANCH  14  15
ATOM     15  C   UNL     1      -2.235  -0.987  10.329  0.00  0.00    +0.000 C 
ATOM     16  C   UNL     1      -2.600  -0.846  11.686  0.00  0.00    +0.000 C 
ENDBRANCH  14  15
BRANCH  14  17
ATOM     17  C   UNL     1      -2.999  -3.207   9.519  0.00  0.00    +0.000 C 
BRANCH  17  18
ATOM     18  C   UNL     1      -1.885  -3.621   8.744  0.00  0.00    +0.000 C 
BRANCH  18  20
ATOM     19  C   UNL     1      -1.813  -3.782   6.323  0.00  0.00    +0.000 C 
ATOM     20  C   UNL     1      -2.511  -4.231   7.587  0.00  0.00    +0.000 C 
ENDBRANCH  18  20
ENDBRANCH  17  18
ENDBRANCH  14  17
ENDBRANCH  13  14
ENDBRANCH   1  13
TORSDOF 9
ENDMDL
MODEL 4
REMARK VINA RESULT:      -3.4      4.381     11.503
REMARK  Name = bg33_1_ligand
REMARK  12 active torsions:
REMARK  status: ('A' for Active; 'I' for Inactive)
REMARK    1  A    between atoms: C_1  and  C_2
REMARK    2  A    between atoms: C_2  and  C_3
REMARK    3  A    between atoms: C_3  and  C_4
REMARK    4  A    between atoms: C_4  and  C_5
REMARK    5  A    between atoms: C_5  and  C_6
REMARK    6  A    between atoms: C_5  and  O_8
REMARK    7  A    between atoms: C_6  and  C_7
REMARK    8  A    between atoms: O_8  and  C_9
REMARK    9  A    between atoms: C_9  and  C_11
REMARK   10  A    between atoms: C_12  and  C_13
REMARK   11  A    between atoms: C_16  and  O_17
REMARK   12  A    between atoms: O_17  and  C_18
REMARK                            x       y       z     vdW  Elec       q    Type
REMARK                         _______ _______ _______ _____ _____    ______ ____
ROOT
ATOM      1  C   UNL     1      -3.026   3.714  -2.286  0.00  0.00    +0.000 C 
ATOM      2  O   UNL     1      -3.544   4.771  -2.046  0.00  0.00    +0.000 OA
ENDROOT
BRANCH   1   3
ATOM      3  C   UNL     1      -2.723   2.803  -1.256  0.00  0.00    +0.000 C 
ATOM      4  C   UNL     1      -3.681   2.229  -0.677  0.00  0.00    +0.000 C 
BRANCH   4   5
ATOM      5  C   UNL     1      -3.553   1.436   0.442  0.00  0.00    +0.000 A 
ATOM      6  C   UNL     1      -3.305   0.122   0.344  0.00  0.00    +0.000 A 
ATOM      7  C   UNL     1      -3.177  -0.674   1.435  0.00  0.00    +0.000 A 
ATOM      8  C   UNL     1      -3.275  -0.075   2.656  0.00  0.00    +0.000 A 
ATOM      9  C   UNL     1      -3.507   1.213   2.807  0.00  0.00    +0.000 A 
ATOM     10  C   UNL     1      -3.672   1.968   1.697  0.00  0.00    +0.000 A 
BRANCH   8  11
ATOM     11  O   UNL     1      -3.173  -0.785   3.754  0.00  0.00    +0.000 OA
ATOM     12  C   UNL     1      -3.594  -2.099   3.615  0.00  0.00    +0.000 C 
ENDBRANCH   8  11
ENDBRANCH   4   5
ENDBRANCH   1   3
BRANCH   1  13
ATOM     13  O   UNL     1      -2.743   3.397  -3.505  0.00  0.00    +0.000 OA
BRANCH  13  14
ATOM     14  C   UNL     1      -3.714   3.579  -4.288  0.00  0.00    +0.000 C 
BRANCH  14  15
ATOM     15  C   UNL     1      -3.303   4.267  -5.545  0.00  0.00    +0.000 C 
ATOM     16  C   UNL     1      -2.663   5.507  -5.327  0.00  0.00    +0.000 C 
ENDBRANCH  14  15
BRANCH  14  17
ATOM     17  C   UNL     1      -4.626   2.517  -4.380  0.00  0.00    +0.000 C 
BRANCH  17  18
ATOM     18  C   UNL     1      -4.911   2.123  -5.713  0.00  0.00    +0.000 C 
BRANCH  18  20
ATOM     19  C   UNL     1      -4.796   0.073  -7.009  0.00  0.00    +0.000 C 
ATOM     20  C   UNL     1      -4.896   0.675  -5.626  0.00  0.00    +0.000 C 
ENDBRANCH  18  20
ENDBRANCH  17  18
ENDBRANCH  14  17
ENDBRANCH  13  14
ENDBRANCH   1  13
TORSDOF 9
ENDMDL
MODEL 5
REMARK VINA RESULT:      -3.4      7.923     14.969
REMARK  Name = bg33_1_ligand
REMARK  12 active torsions:
REMARK  status: ('A' for Active; 'I' for Inactive)
REMARK    1  A    between atoms: C_1  and  C_2
REMARK    2  A    between atoms: C_2  and  C_3
REMARK    3  A    between atoms: C_3  and  C_4
REMARK    4  A    between atoms: C_4  and  C_5
REMARK    5  A    between atoms: C_5  and  C_6
REMARK    6  A    between atoms: C_5  and  O_8
REMARK    7  A    between atoms: C_6  and  C_7
REMARK    8  A    between atoms: O_8  and  C_9
REMARK    9  A    between atoms: C_9  and  C_11
REMARK   10  A    between atoms: C_12  and  C_13
REMARK   11  A    between atoms: C_16  and  O_17
REMARK   12  A    between atoms: O_17  and  C_18
REMARK                            x       y       z     vdW  Elec       q    Type
REMARK                         _______ _______ _______ _____ _____    ______ ____
ROOT
ATOM      1  C   UNL     1      -2.747   5.633  -6.136  0.00  0.00    +0.000 C 
ATOM      2  O   UNL     1      -3.629   6.104  -6.802  0.00  0.00    +0.000 OA
ENDROOT
BRANCH   1   3
ATOM      3  C   UNL     1      -2.992   5.175  -4.827  0.00  0.00    +0.000 C 
ATOM      4  C   UNL     1      -3.064   3.934  -4.641  0.00  0.00    +0.000 C 
BRANCH   4   5
ATOM      5  C   UNL     1      -3.447   3.343  -3.457  0.00  0.00    +0.000 A 
ATOM      6  C   UNL     1      -4.536   2.564  -3.383  0.00  0.00    +0.000 A 
ATOM      7  C   UNL     1      -4.929   1.976  -2.226  0.00  0.00    +0.000 A 
ATOM      8  C   UNL     1      -4.145   2.179  -1.129  0.00  0.00    +0.000 A 
ATOM      9  C   UNL     1      -3.060   2.926  -1.150  0.00  0.00    +0.000 A 
ATOM     10  C   UNL     1      -2.723   3.532  -2.311  0.00  0.00    +0.000 A 
BRANCH   8  11
ATOM     11  O   UNL     1      -4.470   1.650   0.027  0.00  0.00    +0.000 OA
ATOM     12  C   UNL     1      -3.511   0.789   0.539  0.00  0.00    +0.000 C 
ENDBRANCH   8  11
ENDBRANCH   4   5
ENDBRANCH   1   3
BRANCH   1  13
ATOM     13  O   UNL     1      -1.555   5.537  -6.619  0.00  0.00    +0.000 OA
BRANCH  13  14
ATOM     14  C   UNL     1      -1.139   6.628  -7.094  0.00  0.00    +0.000 C 
BRANCH  14  15
ATOM     15  C   UNL     1      -0.589   7.528  -6.040  0.00  0.00    +0.000 C 
ATOM     16  C   UNL     1       0.430   8.388  -6.507  0.00  0.00    +0.000 C 
ENDBRANCH  14  15
BRANCH  14  17
ATOM     17  C   UNL     1      -0.451   6.536  -8.313  0.00  0.00    +0.000 C 
BRANCH  17  18
ATOM     18  C   UNL     1      -1.301   6.392  -9.439  0.00  0.00    +0.000 C 
BRANCH  18  20
ATOM     19  C   UNL     1      -0.498   8.571 -10.149  0.00  0.00    +0.000 C 
ATOM     20  C   UNL     1      -1.698   7.760  -9.714  0.00  0.00    +0.000 C 
ENDBRANCH  18  20
ENDBRANCH  17  18
ENDBRANCH  14  17
ENDBRANCH  13  14
ENDBRANCH   1  13
TORSDOF 9
ENDMDL
MODEL 6
REMARK VINA RESULT:      -3.4      1.687      3.072
REMARK  Name = bg33_1_ligand
REMARK  12 active torsions:
REMARK  status: ('A' for Active; 'I' for Inactive)
REMARK    1  A    between atoms: C_1  and  C_2
REMARK    2  A    between atoms: C_2  and  C_3
REMARK    3  A    between atoms: C_3  and  C_4
REMARK    4  A    between atoms: C_4  and  C_5
REMARK    5  A    between atoms: C_5  and  C_6
REMARK    6  A    between atoms: C_5  and  O_8
REMARK    7  A    between atoms: C_6  and  C_7
REMARK    8  A    between atoms: O_8  and  C_9
REMARK    9  A    between atoms: C_9  and  C_11
REMARK   10  A    between atoms: C_12  and  C_13
REMARK   11  A    between atoms: C_16  and  O_17
REMARK   12  A    between atoms: O_17  and  C_18
REMARK                            x       y       z     vdW  Elec       q    Type
REMARK                         _______ _______ _______ _____ _____    ______ ____
ROOT
ATOM      1  C   UNL     1      -3.522  -2.900   4.410  0.00  0.00    +0.000 C 
ATOM      2  O   UNL     1      -4.463  -3.506   4.845  0.00  0.00    +0.000 OA
ENDROOT
BRANCH   1   3
ATOM      3  C   UNL     1      -3.652  -2.074   3.277  0.00  0.00    +0.000 C 
ATOM      4  C   UNL     1      -3.152  -0.921   3.328  0.00  0.00    +0.000 C 
BRANCH   4   5
ATOM      5  C   UNL     1      -3.329   0.049   2.367  0.00  0.00    +0.000 A 
ATOM      6  C   UNL     1      -3.221  -0.232   1.060  0.00  0.00    +0.000 A 
ATOM      7  C   UNL     1      -3.391   0.711   0.100  0.00  0.00    +0.000 A 
ATOM      8  C   UNL     1      -3.716   1.969   0.515  0.00  0.00    +0.000 A 
ATOM      9  C   UNL     1      -3.845   2.294   1.785  0.00  0.00    +0.000 A 
ATOM     10  C   UNL     1      -3.626   1.338   2.717  0.00  0.00    +0.000 A 
BRANCH   8  11
ATOM     11  O   UNL     1      -3.885   2.934  -0.357  0.00  0.00    +0.000 OA
ATOM     12  C   UNL     1      -3.988   2.493  -1.668  0.00  0.00    +0.000 C 
ENDBRANCH   8  11
ENDBRANCH   4   5
ENDBRANCH   1   3
BRANCH   1  13
ATOM     13  O   UNL     1      -2.370  -2.998   4.984  0.00  0.00    +0.000 OA
BRANCH  13  14
ATOM     14  C   UNL     1      -2.163  -4.149   5.454  0.00  0.00    +0.000 C 
BRANCH  14  15
ATOM     15  C   UNL     1      -1.638  -5.092   4.426  0.00  0.00    +0.000 C 
ATOM     16  C   UNL     1      -0.830  -6.119   4.962  0.00  0.00    +0.000 C 
ENDBRANCH  14  15
BRANCH  14  17
ATOM     17  C   UNL     1      -1.599  -4.186   6.739  0.00  0.00    +0.000 C 
BRANCH  17  18
ATOM     18  C   UNL     1      -2.363  -3.500   7.718  0.00  0.00    +0.000 C 
BRANCH  18  20
ATOM     19  C   UNL     1      -1.485  -5.445   8.876  0.00  0.00    +0.000 C 
ATOM     20  C   UNL     1      -1.776  -3.964   8.960  0.00  0.00    +0.000 C 
ENDBRANCH  18  20
ENDBRANCH  17  18
ENDBRANCH  14  17
ENDBRANCH  13  14
ENDBRANCH   1  13
TORSDOF 9
ENDMDL
MODEL 7
REMARK VINA RESULT:      -3.3      5.384     10.474
REMARK  Name = bg33_1_ligand
REMARK  12 active torsions:
REMARK  status: ('A' for Active; 'I' for Inactive)
REMARK    1  A    between atoms: C_1  and  C_2
REMARK    2  A    between atoms: C_2  and  C_3
REMARK    3  A    between atoms: C_3  and  C_4
REMARK    4  A    between atoms: C_4  and  C_5
REMARK    5  A    between atoms: C_5  and  C_6
REMARK    6  A    between atoms: C_5  and  O_8
REMARK    7  A    between atoms: C_6  and  C_7
REMARK    8  A    between atoms: O_8  and  C_9
REMARK    9  A    between atoms: C_9  and  C_11
REMARK   10  A    between atoms: C_12  and  C_13
REMARK   11  A    between atoms: C_16  and  O_17
REMARK   12  A    between atoms: O_17  and  C_18
REMARK                            x       y       z     vdW  Elec       q    Type
REMARK                         _______ _______ _______ _____ _____    ______ ____
ROOT
ATOM      1  C   UNL     1      -5.788   0.915  -2.378  0.00  0.00    +0.000 C 
ATOM      2  O   UNL     1      -5.745  -0.213  -2.789  0.00  0.00    +0.000 OA
ENDROOT
BRANCH   1   3
ATOM      3  C   UNL     1      -5.440   1.215  -1.047  0.00  0.00    +0.000 C 
ATOM      4  C   UNL     1      -4.287   0.903  -0.655  0.00  0.00    +0.000 C 
BRANCH   4   5
ATOM      5  C   UNL     1      -3.856   0.992   0.650  0.00  0.00    +0.000 A 
ATOM      6  C   UNL     1      -3.368  -0.074   1.300  0.00  0.00    +0.000 A 
ATOM      7  C   UNL     1      -2.941  -0.005   2.586  0.00  0.00    +0.000 A 
ATOM      8  C   UNL     1      -2.992   1.215   3.193  0.00  0.00    +0.000 A 
ATOM      9  C   UNL     1      -3.451   2.295   2.595  0.00  0.00    +0.000 A 
ATOM     10  C   UNL     1      -3.910   2.180   1.328  0.00  0.00    +0.000 A 
BRANCH   8  11
ATOM     11  O   UNL     1      -2.605   1.354   4.439  0.00  0.00    +0.000 OA
ATOM     12  C   UNL     1      -1.953   2.551   4.693  0.00  0.00    +0.000 C 
ENDBRANCH   8  11
ENDBRANCH   4   5
ENDBRANCH   1   3
BRANCH   1  13
ATOM     13  O   UNL     1      -6.154   1.873  -3.161  0.00  0.00    +0.000 OA
BRANCH  13  14
ATOM     14  C   UNL     1      -5.237   2.226  -3.951  0.00  0.00    +0.000 C 
BRANCH  14  15
ATOM     15  C   UNL     1      -5.599   1.987  -5.377  0.00  0.00    +0.000 C 
ATOM     16  C   UNL     1      -4.867   0.939  -5.978  0.00  0.00    +0.000 C 
ENDBRANCH  14  15
BRANCH  14  17
ATOM     17  C   UNL     1      -4.582   3.423  -3.623  0.00  0.00    +0.000 C 
BRANCH  17  18
ATOM     18  C   UNL     1      -3.167   3.331  -3.672  0.00  0.00    +0.000 C 
BRANCH  18  20
ATOM     19  C   UNL     1      -3.702   4.614  -1.681  0.00  0.00    +0.000 C 
ATOM     20  C   UNL     1      -2.786   3.579  -2.295  0.00  0.00    +0.000 C 
ENDBRANCH  18  20
ENDBRANCH  17  18
ENDBRANCH  14  17
ENDBRANCH  13  14
ENDBRANCH   1  13
TORSDOF 9
ENDMDL
MODEL 8
REMARK VINA RESULT:      -3.3     11.152     13.711
REMARK  Name = bg33_1_ligand
REMARK  12 active torsions:
REMARK  status: ('A' for Active; 'I' for Inactive)
REMARK    1  A    between atoms: C_1  and  C_2
REMARK    2  A    between atoms: C_2  and  C_3
REMARK    3  A    between atoms: C_3  and  C_4
REMARK    4  A    between atoms: C_4  and  C_5
REMARK    5  A    between atoms: C_5  and  C_6
REMARK    6  A    between atoms: C_5  and  O_8
REMARK    7  A    between atoms: C_6  and  C_7
REMARK    8  A    between atoms: O_8  and  C_9
REMARK    9  A    between atoms: C_9  and  C_11
REMARK   10  A    between atoms: C_12  and  C_13
REMARK   11  A    between atoms: C_16  and  O_17
REMARK   12  A    between atoms: O_17  and  C_18
REMARK                            x       y       z     vdW  Elec       q    Type
REMARK                         _______ _______ _______ _____ _____    ______ ____
ROOT
ATOM      1  C   UNL     1      -5.579   2.573  -5.298  0.00  0.00    +0.000 C 
ATOM      2  O   UNL     1      -6.348   2.940  -4.452  0.00  0.00    +0.000 OA
ENDROOT
BRANCH   1   3
ATOM      3  C   UNL     1      -5.685   1.290  -5.869  0.00  0.00    +0.000 C 
ATOM      4  C   UNL     1      -4.623   0.702  -6.196  0.00  0.00    +0.000 C 
BRANCH   4   5
ATOM      5  C   UNL     1      -4.573  -0.481  -6.900  0.00  0.00    +0.000 A 
ATOM      6  C   UNL     1      -4.384  -1.656  -6.282  0.00  0.00    +0.000 A 
ATOM      7  C   UNL     1      -4.330  -2.830  -6.959  0.00  0.00    +0.000 A 
ATOM      8  C   UNL     1      -4.514  -2.778  -8.310  0.00  0.00    +0.000 A 
ATOM      9  C   UNL     1      -4.715  -1.652  -8.963  0.00  0.00    +0.000 A 
ATOM     10  C   UNL     1      -4.719  -0.496  -8.260  0.00  0.00    +0.000 A 
BRANCH   8  11
ATOM     11  O   UNL     1      -4.465  -3.873  -9.030  0.00  0.00    +0.000 OA
ATOM     12  C   UNL     1      -3.828  -4.931  -8.400  0.00  0.00    +0.000 C 
ENDBRANCH   8  11
ENDBRANCH   4   5
ENDBRANCH   1   3
BRANCH   1  13
ATOM     13  O   UNL     1      -4.638   3.360  -5.699  0.00  0.00    +0.000 OA
BRANCH  13  14
ATOM     14  C   UNL     1      -4.156   4.051  -4.761  0.00  0.00    +0.000 C 
BRANCH  14  15
ATOM     15  C   UNL     1      -3.054   3.344  -4.049  0.00  0.00    +0.000 C 
ATOM     16  C   UNL     1      -3.046   3.572  -2.655  0.00  0.00    +0.000 C 
ENDBRANCH  14  15
BRANCH  14  17
ATOM     17  C   UNL     1      -4.000   5.418  -5.035  0.00  0.00    +0.000 C 
BRANCH  17  18
ATOM     18  C   UNL     1      -3.448   5.685  -6.314  0.00  0.00    +0.000 C 
BRANCH  18  20
ATOM     19  C   UNL     1      -1.210   6.166  -7.121  0.00  0.00    +0.000 C 
ATOM     20  C   UNL     1      -2.197   6.342  -5.989  0.00  0.00    +0.000 C 
ENDBRANCH  18  20
ENDBRANCH  17  18
ENDBRANCH  14  17
ENDBRANCH  13  14
ENDBRANCH   1  13
TORSDOF 9
ENDMDL
MODEL 9
REMARK VINA RESULT:      -3.3      3.528     10.473
REMARK  Name = bg33_1_ligand
REMARK  12 active torsions:
REMARK  status: ('A' for Active; 'I' for Inactive)
REMARK    1  A    between atoms: C_1  and  C_2
REMARK    2  A    between atoms: C_2  and  C_3
REMARK    3  A    between atoms: C_3  and  C_4
REMARK    4  A    between atoms: C_4  and  C_5
REMARK    5  A    between atoms: C_5  and  C_6
REMARK    6  A    between atoms: C_5  and  O_8
REMARK    7  A    between atoms: C_6  and  C_7
REMARK    8  A    between atoms: O_8  and  C_9
REMARK    9  A    between atoms: C_9  and  C_11
REMARK   10  A    between atoms: C_12  and  C_13
REMARK   11  A    between atoms: C_16  and  O_17
REMARK   12  A    between atoms: O_17  and  C_18
REMARK                            x       y       z     vdW  Elec       q    Type
REMARK                         _______ _______ _______ _____ _____    ______ ____
ROOT
ATOM      1  C   UNL     1      -3.773   1.901  -0.884  0.00  0.00    +0.000 C 
ATOM      2  O   UNL     1      -4.681   1.551  -1.588  0.00  0.00    +0.000 OA
ENDROOT
BRANCH   1   3
ATOM      3  C   UNL     1      -3.619   1.379   0.415  0.00  0.00    +0.000 C 
ATOM      4  C   UNL     1      -3.443   0.140   0.534  0.00  0.00    +0.000 C 
BRANCH   4   5
ATOM      5  C   UNL     1      -3.431  -0.533   1.736  0.00  0.00    +0.000 A 
ATOM      6  C   UNL     1      -3.855  -1.801   1.833  0.00  0.00    +0.000 A 
ATOM      7  C   UNL     1      -3.851  -2.479   3.008  0.00  0.00    +0.000 A 
ATOM      8  C   UNL     1      -3.359  -1.827   4.100  0.00  0.00    +0.000 A 
ATOM      9  C   UNL     1      -2.920  -0.585   4.056  0.00  0.00    +0.000 A 
ATOM     10  C   UNL     1      -2.979   0.074   2.876  0.00  0.00    +0.000 A 
BRANCH   8  11
ATOM     11  O   UNL     1      -3.334  -2.417   5.271  0.00  0.00    +0.000 OA
ATOM     12  C   UNL     1      -2.320  -3.352   5.407  0.00  0.00    +0.000 C 
ENDBRANCH   8  11
ENDBRANCH   4   5
ENDBRANCH   1   3
BRANCH   1  13
ATOM     13  O   UNL     1      -2.917   2.764  -1.317  0.00  0.00    +0.000 OA
BRANCH  13  14
ATOM     14  C   UNL     1      -3.428   3.583  -2.128  0.00  0.00    +0.000 C 
BRANCH  14  15
ATOM     15  C   UNL     1      -3.789   4.873  -1.473  0.00  0.00    +0.000 C 
ATOM     16  C   UNL     1      -2.685   5.731  -1.269  0.00  0.00    +0.000 C 
ENDBRANCH  14  15
BRANCH  14  17
ATOM     17  C   UNL     1      -2.835   3.627  -3.399  0.00  0.00    +0.000 C 
BRANCH  17  18
ATOM     18  C   UNL     1      -3.768   3.768  -4.459  0.00  0.00    +0.000 C 
BRANCH  18  20
ATOM     19  C   UNL     1      -2.753   5.908  -4.992  0.00  0.00    +0.000 C 
ATOM     20  C   UNL     1      -3.006   4.492  -5.458  0.00  0.00    +0.000 C 
ENDBRANCH  18  20
ENDBRANCH  17  18
ENDBRANCH  14  17
ENDBRANCH  13  14
ENDBRANCH   1  13
TORSDOF 9
ENDMDL
