REMARK  Name = s2_esm2_control_ligand
REMARK  12 active torsions:
REMARK  status: ('A' for Active; 'I' for Inactive)
REMARK    1  A    between atoms: C_1  and  C_2
REMARK    2  A    between atoms: C_2  and  C_3
REMARK    3  A    between atoms: C_3  and  C_4
REMARK    4  A    between atoms: C_4  and  C_5
REMARK    5  A    between atoms: C_5  and  C_6
REMARK    6  A    between atoms: C_5  and  O_8
REMARK    7  A    between atoms: C_6  and  C_7
REMARK    8  A    between atoms: O_8  and  C_9
REMARK    9  A    between atoms: C_9  and  C_11
REMARK   10  A    between atoms: C_12  and  C_13
REMARK   11  A    between atoms: C_16  and  O_17
REMARK   12  A    between atoms: O_17  and  C_18
REMARK                            x       y       z     vdW  Elec       q    Type
REMARK                         _______ _______ _______ _____ _____    ______ ____
ROOT
ATOM      1  C   UNL     1      -9.425   7.373  -4.097  0.00  0.00    +0.000 C 
ATOM      2  O   UNL     1     -10.101   7.421  -5.090  0.00  0.00    +0.000 OA
ENDROOT
BRANCH   1   3
ATOM      3  C   UNL     1      -7.955   7.168  -4.115  0.00  0.00    +0.000 C 
ATOM      4  C   UNL     1      -7.331   7.043  -5.320  0.00  0.00    +0.000 C 
BRANCH   4   5
ATOM      5  C   UNL     1      -5.871   6.878  -5.470  0.00  0.00    +0.000 A 
ATOM      6  C   UNL     1      -5.360   6.716  -6.745  0.00  0.00    +0.000 A 
ATOM      7  C   UNL     1      -4.000   6.574  -6.947  0.00  0.00    +0.000 A 
ATOM      8  C   UNL     1      -3.134   6.591  -5.885  0.00  0.00    +0.000 A 
ATOM      9  C   UNL     1      -3.638   6.755  -4.614  0.00  0.00    +0.000 A 
ATOM     10  C   UNL     1      -5.005   6.896  -4.411  0.00  0.00    +0.000 A 
BRANCH   8  11
ATOM     11  O   UNL     1      -1.812   6.452  -6.138  0.00  0.00    +0.000 OA
ATOM     12  C   UNL     1      -0.872   6.559  -5.077  0.00  0.00    +0.000 C 
ENDBRANCH   8  11
ENDBRANCH   4   5
ENDBRANCH   1   3
BRANCH   1  13
ATOM     13  O   UNL     1      -9.975   7.529  -2.875  0.00  0.00    +0.000 OA
BRANCH  13  14
ATOM     14  C   UNL     1     -11.363   7.797  -2.765  0.00  0.00    +0.000 C 
BRANCH  14  15
ATOM     15  C   UNL     1     -11.984   6.758  -1.834  0.00  0.00    +0.000 C 
ATOM     16  C   UNL     1     -13.050   5.894  -2.486  0.00  0.00    +0.000 C 
ENDBRANCH  14  15
BRANCH  14  17
ATOM     17  C   UNL     1     -11.570   9.181  -2.200  0.00  0.00    +0.000 C 
BRANCH  17  18
ATOM     18  C   UNL     1     -10.821  10.254  -2.928  0.00  0.00    +0.000 C 
BRANCH  18  20
ATOM     19  C   UNL     1     -10.266  12.681  -3.070  0.00  0.00    +0.000 C 
ATOM     20  C   UNL     1     -11.109  11.618  -2.376  0.00  0.00    +0.000 C 
ENDBRANCH  18  20
ENDBRANCH  17  18
ENDBRANCH  14  17
ENDBRANCH  13  14
ENDBRANCH   1  13
TORSDOF 9
