MODEL 1
REMARK VINA RESULT:      -4.4      0.000      0.000
REMARK  Name = s2_esm2_control_ligand
REMARK  12 active torsions:
REMARK  status: ('A' for Active; 'I' for Inactive)
REMARK    1  A    between atoms: C_1  and  C_2
REMARK    2  A    between atoms: C_2  and  C_3
REMARK    3  A    between atoms: C_3  and  C_4
REMARK    4  A    between atoms: C_4  and  C_5
REMARK    5  A    between atoms: C_5  and  C_6
REMARK    6  A    between atoms: C_5  and  O_8
REMARK    7  A    between atoms: C_6  and  C_7
REMARK    8  A    between atoms: O_8  and  C_9
REMARK    9  A    between atoms: C_9  and  C_11
REMARK   10  A    between atoms: C_12  and  C_13
REMARK   11  A    between atoms: C_16  and  O_17
REMARK   12  A    between atoms: O_17  and  C_18
REMARK                            x       y       z     vdW  Elec       q    Type
REMARK                         _______ _______ _______ _____ _____    ______ ____
ROOT
ATOM      1  C   UNL     1      -0.868   4.536   3.972  0.00  0.00    +0.000 C 
ATOM      2  O   UNL     1      -0.803   5.064   5.050  0.00  0.00    +0.000 OA
ENDROOT
BRANCH   1   3
ATOM      3  C   UNL     1      -2.136   4.359   3.221  0.00  0.00    +0.000 C 
ATOM      4  C   UNL     1      -3.176   5.195   3.497  0.00  0.00    +0.000 C 
BRANCH   4   5
ATOM      5  C   UNL     1      -4.472   5.147   2.789  0.00  0.00    +0.000 A 
ATOM      6  C   UNL     1      -4.474   4.778   1.456  0.00  0.00    +0.000 A 
ATOM      7  C   UNL     1      -5.658   4.699   0.748  0.00  0.00    +0.000 A 
ATOM      8  C   UNL     1      -6.852   4.987   1.356  0.00  0.00    +0.000 A 
ATOM      9  C   UNL     1      -6.855   5.353   2.684  0.00  0.00    +0.000 A 
ATOM     10  C   UNL     1      -5.664   5.433   3.395  0.00  0.00    +0.000 A 
BRANCH   8  11
ATOM     11  O   UNL     1      -7.983   4.891   0.619  0.00  0.00    +0.000 OA
ATOM     12  C   UNL     1      -8.644   6.069   0.178  0.00  0.00    +0.000 C 
ENDBRANCH   8  11
ENDBRANCH   4   5
ENDBRANCH   1   3
BRANCH   1  13
ATOM     13  O   UNL     1       0.241   4.079   3.355  0.00  0.00    +0.000 OA
BRANCH  13  14
ATOM     14  C   UNL     1       0.249   2.768   2.816  0.00  0.00    +0.000 C 
BRANCH  14  15
ATOM     15  C   UNL     1       1.422   2.650   1.845  0.00  0.00    +0.000 C 
ATOM     16  C   UNL     1       2.189   3.945   1.634  0.00  0.00    +0.000 C 
ENDBRANCH  14  15
BRANCH  14  17
ATOM     17  C   UNL     1       0.402   1.761   3.930  0.00  0.00    +0.000 C 
BRANCH  17  18
ATOM     18  C   UNL     1       1.697   1.010   3.898  0.00  0.00    +0.000 C 
BRANCH  18  20
ATOM     19  C   UNL     1       3.193   2.574   5.136  0.00  0.00    +0.000 C 
ATOM     20  C   UNL     1       2.501   1.216   5.146  0.00  0.00    +0.000 C 
ENDBRANCH  18  20
ENDBRANCH  17  18
ENDBRANCH  14  17
ENDBRANCH  13  14
ENDBRANCH   1  13
TORSDOF 9
ENDMDL
MODEL 2
REMARK VINA RESULT:      -4.4      4.492      8.878
REMARK  Name = s2_esm2_control_ligand
REMARK  12 active torsions:
REMARK  status: ('A' for Active; 'I' for Inactive)
REMARK    1  A    between atoms: C_1  and  C_2
REMARK    2  A    between atoms: C_2  and  C_3
REMARK    3  A    between atoms: C_3  and  C_4
REMARK    4  A    between atoms: C_4  and  C_5
REMARK    5  A    between atoms: C_5  and  C_6
REMARK    6  A    between atoms: C_5  and  O_8
REMARK    7  A    between atoms: C_6  and  C_7
REMARK    8  A    between atoms: O_8  and  C_9
REMARK    9  A    between atoms: C_9  and  C_11
REMARK   10  A    between atoms: C_12  and  C_13
REMARK   11  A    between atoms: C_16  and  O_17
REMARK   12  A    between atoms: O_17  and  C_18
REMARK                            x       y       z     vdW  Elec       q    Type
REMARK                         _______ _______ _______ _____ _____    ______ ____
ROOT
ATOM      1  C   UNL     1      -9.528   4.293   4.636  0.00  0.00    +0.000 C 
ATOM      2  O   UNL     1     -10.023   5.188   5.269  0.00  0.00    +0.000 OA
ENDROOT
BRANCH   1   3
ATOM      3  C   UNL     1      -8.079   4.212   4.326  0.00  0.00    +0.000 C 
ATOM      4  C   UNL     1      -7.553   5.104   3.440  0.00  0.00    +0.000 C 
BRANCH   4   5
ATOM      5  C   UNL     1      -6.121   5.151   3.082  0.00  0.00    +0.000 A 
ATOM      6  C   UNL     1      -5.216   5.518   4.061  0.00  0.00    +0.000 A 
ATOM      7  C   UNL     1      -3.861   5.564   3.787  0.00  0.00    +0.000 A 
ATOM      8  C   UNL     1      -3.393   5.246   2.539  0.00  0.00    +0.000 A 
ATOM      9  C   UNL     1      -4.291   4.877   1.563  0.00  0.00    +0.000 A 
ATOM     10  C   UNL     1      -5.652   4.832   1.837  0.00  0.00    +0.000 A 
BRANCH   8  11
ATOM     11  O   UNL     1      -2.058   5.302   2.326  0.00  0.00    +0.000 OA
ATOM     12  C   UNL     1      -1.262   6.228   3.054  0.00  0.00    +0.000 C 
ENDBRANCH   8  11
ENDBRANCH   4   5
ENDBRANCH   1   3
BRANCH   1  13
ATOM     13  O   UNL     1     -10.279   3.270   4.177  0.00  0.00    +0.000 OA
BRANCH  13  14
ATOM     14  C   UNL     1     -10.738   2.282   5.084  0.00  0.00    +0.000 C 
BRANCH  14  15
ATOM     15  C   UNL     1     -12.191   1.954   4.747  0.00  0.00    +0.000 C 
ATOM     16  C   UNL     1     -12.754   0.763   5.504  0.00  0.00    +0.000 C 
ENDBRANCH  14  15
BRANCH  14  17
ATOM     17  C   UNL     1      -9.889   1.041   4.955  0.00  0.00    +0.000 C 
BRANCH  17  18
ATOM     18  C   UNL     1      -8.923   0.844   6.082  0.00  0.00    +0.000 C 
BRANCH  18  20
ATOM     19  C   UNL     1      -9.139  -1.562   5.461  0.00  0.00    +0.000 C 
ATOM     20  C   UNL     1      -8.933  -0.565   6.595  0.00  0.00    +0.000 C 
ENDBRANCH  18  20
ENDBRANCH  17  18
ENDBRANCH  14  17
ENDBRANCH  13  14
ENDBRANCH   1  13
TORSDOF 9
ENDMDL
MODEL 3
REMARK VINA RESULT:      -4.3      5.076      9.217
REMARK  Name = s2_esm2_control_ligand
REMARK  12 active torsions:
REMARK  status: ('A' for Active; 'I' for Inactive)
REMARK    1  A    between atoms: C_1  and  C_2
REMARK    2  A    between atoms: C_2  and  C_3
REMARK    3  A    between atoms: C_3  and  C_4
REMARK    4  A    between atoms: C_4  and  C_5
REMARK    5  A    between atoms: C_5  and  C_6
REMARK    6  A    between atoms: C_5  and  O_8
REMARK    7  A    between atoms: C_6  and  C_7
REMARK    8  A    between atoms: O_8  and  C_9
REMARK    9  A    between atoms: C_9  and  C_11
REMARK   10  A    between atoms: C_12  and  C_13
REMARK   11  A    between atoms: C_16  and  O_17
REMARK   12  A    between atoms: O_17  and  C_18
REMARK                            x       y       z     vdW  Elec       q    Type
REMARK                         _______ _______ _______ _____ _____    ______ ____
ROOT
ATOM      1  C   UNL     1      -9.830   4.530   5.630  0.00  0.00    +0.000 C 
ATOM      2  O   UNL     1      -9.966   4.573   6.824  0.00  0.00    +0.000 OA
ENDROOT
BRANCH   1   3
ATOM      3  C   UNL     1      -8.533   4.752   4.944  0.00  0.00    +0.000 C 
ATOM      4  C   UNL     1      -8.478   4.597   3.591  0.00  0.00    +0.000 C 
BRANCH   4   5
ATOM      5  C   UNL     1      -7.259   4.831   2.791  0.00  0.00    +0.000 A 
ATOM      6  C   UNL     1      -7.371   4.825   1.413  0.00  0.00    +0.000 A 
ATOM      7  C   UNL     1      -6.267   5.054   0.614  0.00  0.00    +0.000 A 
ATOM      8  C   UNL     1      -5.040   5.291   1.176  0.00  0.00    +0.000 A 
ATOM      9  C   UNL     1      -4.924   5.301   2.548  0.00  0.00    +0.000 A 
ATOM     10  C   UNL     1      -6.033   5.069   3.351  0.00  0.00    +0.000 A 
BRANCH   8  11
ATOM     11  O   UNL     1      -3.992   5.514   0.349  0.00  0.00    +0.000 OA
ATOM     12  C   UNL     1      -4.222   5.842  -1.015  0.00  0.00    +0.000 C 
ENDBRANCH   8  11
ENDBRANCH   4   5
ENDBRANCH   1   3
BRANCH   1  13
ATOM     13  O   UNL     1     -10.874   4.248   4.823  0.00  0.00    +0.000 OA
BRANCH  13  14
ATOM     14  C   UNL     1     -11.876   3.350   5.268  0.00  0.00    +0.000 C 
BRANCH  14  15
ATOM     15  C   UNL     1     -13.243   3.953   4.949  0.00  0.00    +0.000 C 
ATOM     16  C   UNL     1     -14.059   4.330   6.174  0.00  0.00    +0.000 C 
ENDBRANCH  14  15
BRANCH  14  17
ATOM     17  C   UNL     1     -11.722   2.025   4.561  0.00  0.00    +0.000 C 
BRANCH  17  18
ATOM     18  C   UNL     1     -11.046   0.972   5.383  0.00  0.00    +0.000 C 
BRANCH  18  20
ATOM     19  C   UNL     1      -8.749   1.108   6.343  0.00  0.00    +0.000 C 
ATOM     20  C   UNL     1      -9.580   0.878   5.086  0.00  0.00    +0.000 C 
ENDBRANCH  18  20
ENDBRANCH  17  18
ENDBRANCH  14  17
ENDBRANCH  13  14
ENDBRANCH   1  13
TORSDOF 9
ENDMDL
MODEL 4
REMARK VINA RESULT:      -4.2      3.482     10.998
REMARK  Name = s2_esm2_control_ligand
REMARK  12 active torsions:
REMARK  status: ('A' for Active; 'I' for Inactive)
REMARK    1  A    between atoms: C_1  and  C_2
REMARK    2  A    between atoms: C_2  and  C_3
REMARK    3  A    between atoms: C_3  and  C_4
REMARK    4  A    between atoms: C_4  and  C_5
REMARK    5  A    between atoms: C_5  and  C_6
REMARK    6  A    between atoms: C_5  and  O_8
REMARK    7  A    between atoms: C_6  and  C_7
REMARK    8  A    between atoms: O_8  and  C_9
REMARK    9  A    between atoms: C_9  and  C_11
REMARK   10  A    between atoms: C_12  and  C_13
REMARK   11  A    between atoms: C_16  and  O_17
REMARK   12  A    between atoms: O_17  and  C_18
REMARK                            x       y       z     vdW  Elec       q    Type
REMARK                         _______ _______ _______ _____ _____    ______ ____
ROOT
ATOM      1  C   UNL     1      -9.851   6.530  -0.439  0.00  0.00    +0.000 C 
ATOM      2  O   UNL     1     -10.643   7.145   0.223  0.00  0.00    +0.000 OA
ENDROOT
BRANCH   1   3
ATOM      3  C   UNL     1      -8.421   6.372  -0.070  0.00  0.00    +0.000 C 
ATOM      4  C   UNL     1      -8.109   5.594   1.004  0.00  0.00    +0.000 C 
BRANCH   4   5
ATOM      5  C   UNL     1      -6.725   5.327   1.443  0.00  0.00    +0.000 A 
ATOM      6  C   UNL     1      -5.822   4.855   0.507  0.00  0.00    +0.000 A 
ATOM      7  C   UNL     1      -4.509   4.603   0.858  0.00  0.00    +0.000 A 
ATOM      8  C   UNL     1      -4.079   4.817   2.142  0.00  0.00    +0.000 A 
ATOM      9  C   UNL     1      -4.974   5.290   3.076  0.00  0.00    +0.000 A 
ATOM     10  C   UNL     1      -6.294   5.541   2.724  0.00  0.00    +0.000 A 
BRANCH   8  11
ATOM     11  O   UNL     1      -2.783   4.559   2.431  0.00  0.00    +0.000 OA
ATOM     12  C   UNL     1      -1.952   5.591   2.944  0.00  0.00    +0.000 C 
ENDBRANCH   8  11
ENDBRANCH   4   5
ENDBRANCH   1   3
BRANCH   1  13
ATOM     13  O   UNL     1     -10.229   5.911  -1.577  0.00  0.00    +0.000 OA
BRANCH  13  14
ATOM     14  C   UNL     1     -11.080   6.587  -2.487  0.00  0.00    +0.000 C 
BRANCH  14  15
ATOM     15  C   UNL     1     -10.547   6.368  -3.901  0.00  0.00    +0.000 C 
ATOM     16  C   UNL     1      -9.083   6.733  -4.079  0.00  0.00    +0.000 C 
ENDBRANCH  14  15
BRANCH  14  17
ATOM     17  C   UNL     1     -12.481   6.036  -2.377  0.00  0.00    +0.000 C 
BRANCH  17  18
ATOM     18  C   UNL     1     -13.535   7.085  -2.196  0.00  0.00    +0.000 C 
BRANCH  18  20
ATOM     19  C   UNL     1     -13.731   8.655  -4.124  0.00  0.00    +0.000 C 
ATOM     20  C   UNL     1     -14.261   7.382  -3.474  0.00  0.00    +0.000 C 
ENDBRANCH  18  20
ENDBRANCH  17  18
ENDBRANCH  14  17
ENDBRANCH  13  14
ENDBRANCH   1  13
TORSDOF 9
ENDMDL
MODEL 5
REMARK VINA RESULT:      -4.2      1.311      2.402
REMARK  Name = s2_esm2_control_ligand
REMARK  12 active torsions:
REMARK  status: ('A' for Active; 'I' for Inactive)
REMARK    1  A    between atoms: C_1  and  C_2
REMARK    2  A    between atoms: C_2  and  C_3
REMARK    3  A    between atoms: C_3  and  C_4
REMARK    4  A    between atoms: C_4  and  C_5
REMARK    5  A    between atoms: C_5  and  C_6
REMARK    6  A    between atoms: C_5  and  O_8
REMARK    7  A    between atoms: C_6  and  C_7
REMARK    8  A    between atoms: O_8  and  C_9
REMARK    9  A    between atoms: C_9  and  C_11
REMARK   10  A    between atoms: C_12  and  C_13
REMARK   11  A    between atoms: C_16  and  O_17
REMARK   12  A    between atoms: O_17  and  C_18
REMARK                            x       y       z     vdW  Elec       q    Type
REMARK                         _______ _______ _______ _____ _____    ______ ____
ROOT
ATOM      1  C   UNL     1      -1.160   5.227   3.499  0.00  0.00    +0.000 C 
ATOM      2  O   UNL     1      -0.542   5.683   4.424  0.00  0.00    +0.000 OA
ENDROOT
BRANCH   1   3
ATOM      3  C   UNL     1      -2.585   5.544   3.230  0.00  0.00    +0.000 C 
ATOM      4  C   UNL     1      -3.302   4.694   2.443  0.00  0.00    +0.000 C 
BRANCH   4   5
ATOM      5  C   UNL     1      -4.735   4.877   2.137  0.00  0.00    +0.000 A 
ATOM      6  C   UNL     1      -5.134   4.812   0.815  0.00  0.00    +0.000 A 
ATOM      7  C   UNL     1      -6.465   4.959   0.471  0.00  0.00    +0.000 A 
ATOM      8  C   UNL     1      -7.413   5.174   1.438  0.00  0.00    +0.000 A 
ATOM      9  C   UNL     1      -7.020   5.237   2.756  0.00  0.00    +0.000 A 
ATOM     10  C   UNL     1      -5.683   5.090   3.101  0.00  0.00    +0.000 A 
BRANCH   8  11
ATOM     11  O   UNL     1      -8.702   5.308   1.048  0.00  0.00    +0.000 OA
ATOM     12  C   UNL     1      -9.008   5.949  -0.183  0.00  0.00    +0.000 C 
ENDBRANCH   8  11
ENDBRANCH   4   5
ENDBRANCH   1   3
BRANCH   1  13
ATOM     13  O   UNL     1      -0.573   4.395   2.615  0.00  0.00    +0.000 OA
BRANCH  13  14
ATOM     14  C   UNL     1       0.233   3.329   3.091  0.00  0.00    +0.000 C 
BRANCH  14  15
ATOM     15  C   UNL     1      -0.668   2.126   3.364  0.00  0.00    +0.000 C 
ATOM     16  C   UNL     1      -0.291   1.334   4.604  0.00  0.00    +0.000 C 
ENDBRANCH  14  15
BRANCH  14  17
ATOM     17  C   UNL     1       1.266   2.970   2.051  0.00  0.00    +0.000 C 
BRANCH  17  18
ATOM     18  C   UNL     1       2.484   3.841   2.077  0.00  0.00    +0.000 C 
BRANCH  18  20
ATOM     19  C   UNL     1       3.329   5.912   0.974  0.00  0.00    +0.000 C 
ATOM     20  C   UNL     1       2.711   4.534   0.767  0.00  0.00    +0.000 C 
ENDBRANCH  18  20
ENDBRANCH  17  18
ENDBRANCH  14  17
ENDBRANCH  13  14
ENDBRANCH   1  13
TORSDOF 9
ENDMDL
MODEL 6
REMARK VINA RESULT:      -4.2      5.458      8.703
REMARK  Name = s2_esm2_control_ligand
REMARK  12 active torsions:
REMARK  status: ('A' for Active; 'I' for Inactive)
REMARK    1  A    between atoms: C_1  and  C_2
REMARK    2  A    between atoms: C_2  and  C_3
REMARK    3  A    between atoms: C_3  and  C_4
REMARK    4  A    between atoms: C_4  and  C_5
REMARK    5  A    between atoms: C_5  and  C_6
REMARK    6  A    between atoms: C_5  and  O_8
REMARK    7  A    between atoms: C_6  and  C_7
REMARK    8  A    between atoms: O_8  and  C_9
REMARK    9  A    between atoms: C_9  and  C_11
REMARK   10  A    between atoms: C_12  and  C_13
REMARK   11  A    between atoms: C_16  and  O_17
REMARK   12  A    between atoms: O_17  and  C_18
REMARK                            x       y       z     vdW  Elec       q    Type
REMARK                         _______ _______ _______ _____ _____    ______ ____
ROOT
ATOM      1  C   UNL     1      -9.181   5.300   4.244  0.00  0.00    +0.000 C 
ATOM      2  O   UNL     1      -9.840   6.306   4.239  0.00  0.00    +0.000 OA
ENDROOT
BRANCH   1   3
ATOM      3  C   UNL     1      -7.996   5.091   3.375  0.00  0.00    +0.000 C 
ATOM      4  C   UNL     1      -7.915   5.791   2.208  0.00  0.00    +0.000 C 
BRANCH   4   5
ATOM      5  C   UNL     1      -6.768   5.701   1.281  0.00  0.00    +0.000 A 
ATOM      6  C   UNL     1      -6.655   6.659   0.290  0.00  0.00    +0.000 A 
ATOM      7  C   UNL     1      -5.593   6.634  -0.596  0.00  0.00    +0.000 A 
ATOM      8  C   UNL     1      -4.635   5.659  -0.505  0.00  0.00    +0.000 A 
ATOM      9  C   UNL     1      -4.743   4.705   0.482  0.00  0.00    +0.000 A 
ATOM     10  C   UNL     1      -5.810   4.729   1.371  0.00  0.00    +0.000 A 
BRANCH   8  11
ATOM     11  O   UNL     1      -3.615   5.683  -1.394  0.00  0.00    +0.000 OA
ATOM     12  C   UNL     1      -3.547   6.717  -2.368  0.00  0.00    +0.000 C 
ENDBRANCH   8  11
ENDBRANCH   4   5
ENDBRANCH   1   3
BRANCH   1  13
ATOM     13  O   UNL     1      -9.476   4.283   5.080  0.00  0.00    +0.000 OA
BRANCH  13  14
ATOM     14  C   UNL     1      -8.975   2.985   4.801  0.00  0.00    +0.000 C 
BRANCH  14  15
ATOM     15  C   UNL     1      -8.166   2.510   6.006  0.00  0.00    +0.000 C 
ATOM     16  C   UNL     1      -8.526   1.115   6.488  0.00  0.00    +0.000 C 
ENDBRANCH  14  15
BRANCH  14  17
ATOM     17  C   UNL     1     -10.125   2.040   4.550  0.00  0.00    +0.000 C 
BRANCH  17  18
ATOM     18  C   UNL     1     -11.475   2.674   4.688  0.00  0.00    +0.000 C 
BRANCH  18  20
ATOM     19  C   UNL     1     -12.208   0.673   5.984  0.00  0.00    +0.000 C 
ATOM     20  C   UNL     1     -12.560   1.656   4.874  0.00  0.00    +0.000 C 
ENDBRANCH  18  20
ENDBRANCH  17  18
ENDBRANCH  14  17
ENDBRANCH  13  14
ENDBRANCH   1  13
TORSDOF 9
ENDMDL
MODEL 7
REMARK VINA RESULT:      -4.1      3.647     10.449
REMARK  Name = s2_esm2_control_ligand
REMARK  12 active torsions:
REMARK  status: ('A' for Active; 'I' for Inactive)
REMARK    1  A    between atoms: C_1  and  C_2
REMARK    2  A    between atoms: C_2  and  C_3
REMARK    3  A    between atoms: C_3  and  C_4
REMARK    4  A    between atoms: C_4  and  C_5
REMARK    5  A    between atoms: C_5  and  C_6
REMARK    6  A    between atoms: C_5  and  O_8
REMARK    7  A    between atoms: C_6  and  C_7
REMARK    8  A    between atoms: O_8  and  C_9
REMARK    9  A    between atoms: C_9  and  C_11
REMARK   10  A    between atoms: C_12  and  C_13
REMARK   11  A    between atoms: C_16  and  O_17
REMARK   12  A    between atoms: O_17  and  C_18
REMARK                            x       y       z     vdW  Elec       q    Type
REMARK                         _______ _______ _______ _____ _____    ______ ____
ROOT
ATOM      1  C   UNL     1     -10.499   7.063  -0.565  0.00  0.00    +0.000 C 
ATOM      2  O   UNL     1     -11.255   7.350   0.325  0.00  0.00    +0.000 OA
ENDROOT
BRANCH   1   3
ATOM      3  C   UNL     1      -9.222   6.337  -0.352  0.00  0.00    +0.000 C 
ATOM      4  C   UNL     1      -8.413   6.730   0.671  0.00  0.00    +0.000 C 
BRANCH   4   5
ATOM      5  C   UNL     1      -7.140   6.060   1.009  0.00  0.00    +0.000 A 
ATOM      6  C   UNL     1      -6.135   6.051   0.059  0.00  0.00    +0.000 A 
ATOM      7  C   UNL     1      -4.917   5.455   0.326  0.00  0.00    +0.000 A 
ATOM      8  C   UNL     1      -4.686   4.860   1.539  0.00  0.00    +0.000 A 
ATOM      9  C   UNL     1      -5.683   4.869   2.489  0.00  0.00    +0.000 A 
ATOM     10  C   UNL     1      -6.907   5.468   2.220  0.00  0.00    +0.000 A 
BRANCH   8  11
ATOM     11  O   UNL     1      -3.475   4.294   1.751  0.00  0.00    +0.000 OA
ATOM     12  C   UNL     1      -2.682   4.708   2.856  0.00  0.00    +0.000 C 
ENDBRANCH   8  11
ENDBRANCH   4   5
ENDBRANCH   1   3
BRANCH   1  13
ATOM     13  O   UNL     1     -10.784   7.375  -1.846  0.00  0.00    +0.000 OA
BRANCH  13  14
ATOM     14  C   UNL     1     -11.369   6.395  -2.687  0.00  0.00    +0.000 C 
BRANCH  14  15
ATOM     15  C   UNL     1     -12.829   6.774  -2.927  0.00  0.00    +0.000 C 
ATOM     16  C   UNL     1     -13.803   6.165  -1.933  0.00  0.00    +0.000 C 
ENDBRANCH  14  15
BRANCH  14  17
ATOM     17  C   UNL     1     -10.629   6.347  -4.001  0.00  0.00    +0.000 C 
BRANCH  17  18
ATOM     18  C   UNL     1      -9.560   7.387  -4.137  0.00  0.00    +0.000 C 
BRANCH  18  20
ATOM     19  C   UNL     1      -7.229   7.522  -3.262  0.00  0.00    +0.000 C 
ATOM     20  C   UNL     1      -8.188   6.784  -4.187  0.00  0.00    +0.000 C 
ENDBRANCH  18  20
ENDBRANCH  17  18
ENDBRANCH  14  17
ENDBRANCH  13  14
ENDBRANCH   1  13
TORSDOF 9
ENDMDL
MODEL 8
REMARK VINA RESULT:      -4.0     10.251     13.357
REMARK  Name = s2_esm2_control_ligand
REMARK  12 active torsions:
REMARK  status: ('A' for Active; 'I' for Inactive)
REMARK    1  A    between atoms: C_1  and  C_2
REMARK    2  A    between atoms: C_2  and  C_3
REMARK    3  A    between atoms: C_3  and  C_4
REMARK    4  A    between atoms: C_4  and  C_5
REMARK    5  A    between atoms: C_5  and  C_6
REMARK    6  A    between atoms: C_5  and  O_8
REMARK    7  A    between atoms: C_6  and  C_7
REMARK    8  A    between atoms: O_8  and  C_9
REMARK    9  A    between atoms: C_9  and  C_11
REMARK   10  A    between atoms: C_12  and  C_13
REMARK   11  A    between atoms: C_16  and  O_17
REMARK   12  A    between atoms: O_17  and  C_18
REMARK                            x       y       z     vdW  Elec       q    Type
REMARK                         _______ _______ _______ _____ _____    ______ ____
ROOT
ATOM      1  C   UNL     1     -12.626   8.201   0.679  0.00  0.00    +0.000 C 
ATOM      2  O   UNL     1     -12.892   9.222   0.103  0.00  0.00    +0.000 OA
ENDROOT
BRANCH   1   3
ATOM      3  C   UNL     1     -13.353   7.725   1.882  0.00  0.00    +0.000 C 
ATOM      4  C   UNL     1     -14.558   7.110   1.713  0.00  0.00    +0.000 C 
BRANCH   4   5
ATOM      5  C   UNL     1     -15.355   6.557   2.826  0.00  0.00    +0.000 A 
ATOM      6  C   UNL     1     -14.682   5.996   3.896  0.00  0.00    +0.000 A 
ATOM      7  C   UNL     1     -15.376   5.478   4.973  0.00  0.00    +0.000 A 
ATOM      8  C   UNL     1     -16.745   5.512   4.999  0.00  0.00    +0.000 A 
ATOM      9  C   UNL     1     -17.420   6.073   3.938  0.00  0.00    +0.000 A 
ATOM     10  C   UNL     1     -16.723   6.592   2.854  0.00  0.00    +0.000 A 
BRANCH   8  11
ATOM     11  O   UNL     1     -17.376   4.995   6.079  0.00  0.00    +0.000 OA
ATOM     12  C   UNL     1     -18.794   4.888   6.089  0.00  0.00    +0.000 C 
ENDBRANCH   8  11
ENDBRANCH   4   5
ENDBRANCH   1   3
BRANCH   1  13
ATOM     13  O   UNL     1     -11.639   7.393   0.239  0.00  0.00    +0.000 OA
BRANCH  13  14
ATOM     14  C   UNL     1     -11.482   7.179  -1.154  0.00  0.00    +0.000 C 
BRANCH  14  15
ATOM     15  C   UNL     1     -10.227   6.338  -1.375  0.00  0.00    +0.000 C 
ATOM     16  C   UNL     1      -9.328   6.843  -2.491  0.00  0.00    +0.000 C 
ENDBRANCH  14  15
BRANCH  14  17
ATOM     17  C   UNL     1     -12.689   6.451  -1.695  0.00  0.00    +0.000 C 
BRANCH  17  18
ATOM     18  C   UNL     1     -13.022   6.797  -3.113  0.00  0.00    +0.000 C 
BRANCH  18  20
ATOM     19  C   UNL     1     -14.648   8.318  -4.237  0.00  0.00    +0.000 C 
ATOM     20  C   UNL     1     -13.487   8.215  -3.255  0.00  0.00    +0.000 C 
ENDBRANCH  18  20
ENDBRANCH  17  18
ENDBRANCH  14  17
ENDBRANCH  13  14
ENDBRANCH   1  13
TORSDOF 9
ENDMDL
MODEL 9
REMARK VINA RESULT:      -4.0      1.700      2.301
REMARK  Name = s2_esm2_control_ligand
REMARK  12 active torsions:
REMARK  status: ('A' for Active; 'I' for Inactive)
REMARK    1  A    between atoms: C_1  and  C_2
REMARK    2  A    between atoms: C_2  and  C_3
REMARK    3  A    between atoms: C_3  and  C_4
REMARK    4  A    between atoms: C_4  and  C_5
REMARK    5  A    between atoms: C_5  and  C_6
REMARK    6  A    between atoms: C_5  and  O_8
REMARK    7  A    between atoms: C_6  and  C_7
REMARK    8  A    between atoms: O_8  and  C_9
REMARK    9  A    between atoms: C_9  and  C_11
REMARK   10  A    between atoms: C_12  and  C_13
REMARK   11  A    between atoms: C_16  and  O_17
REMARK   12  A    between atoms: O_17  and  C_18
REMARK                            x       y       z     vdW  Elec       q    Type
REMARK                         _______ _______ _______ _____ _____    ______ ____
ROOT
ATOM      1  C   UNL     1      -1.273   5.452   2.804  0.00  0.00    +0.000 C 
ATOM      2  O   UNL     1      -1.039   6.415   2.122  0.00  0.00    +0.000 OA
ENDROOT
BRANCH   1   3
ATOM      3  C   UNL     1      -2.644   4.959   3.083  0.00  0.00    +0.000 C 
ATOM      4  C   UNL     1      -3.692   5.808   2.891  0.00  0.00    +0.000 C 
BRANCH   4   5
ATOM      5  C   UNL     1      -5.104   5.422   3.094  0.00  0.00    +0.000 A 
ATOM      6  C   UNL     1      -5.869   5.137   1.977  0.00  0.00    +0.000 A 
ATOM      7  C   UNL     1      -7.191   4.754   2.108  0.00  0.00    +0.000 A 
ATOM      8  C   UNL     1      -7.766   4.651   3.347  0.00  0.00    +0.000 A 
ATOM      9  C   UNL     1      -7.007   4.931   4.462  0.00  0.00    +0.000 A 
ATOM     10  C   UNL     1      -5.679   5.317   4.331  0.00  0.00    +0.000 A 
BRANCH   8  11
ATOM     11  O   UNL     1      -9.062   4.268   3.419  0.00  0.00    +0.000 OA
ATOM     12  C   UNL     1      -9.463   3.302   4.381  0.00  0.00    +0.000 C 
ENDBRANCH   8  11
ENDBRANCH   4   5
ENDBRANCH   1   3
BRANCH   1  13
ATOM     13  O   UNL     1      -0.273   4.732   3.352  0.00  0.00    +0.000 OA
BRANCH  13  14
ATOM     14  C   UNL     1       0.932   4.547   2.627  0.00  0.00    +0.000 C 
BRANCH  14  15
ATOM     15  C   UNL     1       2.098   5.002   3.502  0.00  0.00    +0.000 C 
ATOM     16  C   UNL     1       3.303   4.079   3.465  0.00  0.00    +0.000 C 
ENDBRANCH  14  15
BRANCH  14  17
ATOM     17  C   UNL     1       1.094   3.089   2.275  0.00  0.00    +0.000 C 
BRANCH  17  18
ATOM     18  C   UNL     1       0.051   2.198   2.875  0.00  0.00    +0.000 C 
BRANCH  18  20
ATOM     19  C   UNL     1       1.822   0.740   3.854  0.00  0.00    +0.000 C 
ATOM     20  C   UNL     1       0.538   1.517   4.119  0.00  0.00    +0.000 C 
ENDBRANCH  18  20
ENDBRANCH  17  18
ENDBRANCH  14  17
ENDBRANCH  13  14
ENDBRANCH   1  13
TORSDOF 9
ENDMDL
