REMARK  Name = s3_orig_f12_ligand
REMARK  12 active torsions:
REMARK  status: ('A' for Active; 'I' for Inactive)
REMARK    1  A    between atoms: C_1  and  C_2
REMARK    2  A    between atoms: C_2  and  C_3
REMARK    3  A    between atoms: C_3  and  C_4
REMARK    4  A    between atoms: C_4  and  C_5
REMARK    5  A    between atoms: C_5  and  C_6
REMARK    6  A    between atoms: C_5  and  O_8
REMARK    7  A    between atoms: C_6  and  C_7
REMARK    8  A    between atoms: O_8  and  C_9
REMARK    9  A    between atoms: C_9  and  C_11
REMARK   10  A    between atoms: C_12  and  C_13
REMARK   11  A    between atoms: C_16  and  O_17
REMARK   12  A    between atoms: O_17  and  C_18
REMARK                            x       y       z     vdW  Elec       q    Type
REMARK                         _______ _______ _______ _____ _____    ______ ____
ROOT
ATOM      1  C   UNL     1      -7.802  -3.065   3.499  0.00  0.00    +0.000 C 
ATOM      2  O   UNL     1      -7.498  -4.132   3.031  0.00  0.00    +0.000 OA
ENDROOT
BRANCH   1   3
ATOM      3  C   UNL     1      -7.155  -2.462   4.688  0.00  0.00    +0.000 C 
ATOM      4  C   UNL     1      -6.167  -3.071   5.338  0.00  0.00    +0.000 C 
BRANCH   4   5
ATOM      5  C   UNL     1      -5.548  -2.564   6.588  0.00  0.00    +0.000 A 
ATOM      6  C   UNL     1      -4.759  -3.413   7.347  0.00  0.00    +0.000 A 
ATOM      7  C   UNL     1      -4.234  -2.990   8.563  0.00  0.00    +0.000 A 
ATOM      8  C   UNL     1      -4.437  -1.700   9.009  0.00  0.00    +0.000 A 
ATOM      9  C   UNL     1      -5.173  -0.848   8.230  0.00  0.00    +0.000 A 
ATOM     10  C   UNL     1      -5.729  -1.276   7.025  0.00  0.00    +0.000 A 
BRANCH   8  11
ATOM     11  O   UNL     1      -3.921  -1.232  10.200  0.00  0.00    +0.000 OA
ATOM     12  C   UNL     1      -3.752  -2.163  11.254  0.00  0.00    +0.000 C 
ENDBRANCH   8  11
ENDBRANCH   4   5
ENDBRANCH   1   3
BRANCH   1  13
ATOM     13  O   UNL     1      -8.736  -2.440   2.979  0.00  0.00    +0.000 OA
BRANCH  13  14
ATOM     14  C   UNL     1      -9.748  -2.072   2.217  0.00  0.00    +0.000 C 
BRANCH  14  15
ATOM     15  C   UNL     1      -9.391  -2.247   0.752  0.00  0.00    +0.000 C 
ATOM     16  C   UNL     1     -10.532  -1.929  -0.208  0.00  0.00    +0.000 C 
ENDBRANCH  14  15
BRANCH  14  17
ATOM     17  C   UNL     1     -11.011  -2.853   2.542  0.00  0.00    +0.000 C 
BRANCH  17  18
ATOM     18  C   UNL     1     -11.257  -3.072   3.999  0.00  0.00    +0.000 C 
BRANCH  18  20
ATOM     19  C   UNL     1     -12.943  -3.434   5.808  0.00  0.00    +0.000 C 
ATOM     20  C   UNL     1     -12.723  -3.180   4.332  0.00  0.00    +0.000 C 
ENDBRANCH  18  20
ENDBRANCH  17  18
ENDBRANCH  14  17
ENDBRANCH  13  14
ENDBRANCH   1  13
TORSDOF 9
