MODEL 1
REMARK VINA RESULT:      -3.9      0.000      0.000
REMARK  Name = s3_orig_f12_ligand
REMARK  12 active torsions:
REMARK  status: ('A' for Active; 'I' for Inactive)
REMARK    1  A    between atoms: C_1  and  C_2
REMARK    2  A    between atoms: C_2  and  C_3
REMARK    3  A    between atoms: C_3  and  C_4
REMARK    4  A    between atoms: C_4  and  C_5
REMARK    5  A    between atoms: C_5  and  C_6
REMARK    6  A    between atoms: C_5  and  O_8
REMARK    7  A    between atoms: C_6  and  C_7
REMARK    8  A    between atoms: O_8  and  C_9
REMARK    9  A    between atoms: C_9  and  C_11
REMARK   10  A    between atoms: C_12  and  C_13
REMARK   11  A    between atoms: C_16  and  O_17
REMARK   12  A    between atoms: O_17  and  C_18
REMARK                            x       y       z     vdW  Elec       q    Type
REMARK                         _______ _______ _______ _____ _____    ______ ____
ROOT
ATOM      1  C   UNL     1      -1.120  -1.238   2.710  0.00  0.00    +0.000 C 
ATOM      2  O   UNL     1      -0.698  -2.191   2.107  0.00  0.00    +0.000 OA
ENDROOT
BRANCH   1   3
ATOM      3  C   UNL     1      -0.469   0.093   2.725  0.00  0.00    +0.000 C 
ATOM      4  C   UNL     1       0.165   0.556   3.799  0.00  0.00    +0.000 C 
BRANCH   4   5
ATOM      5  C   UNL     1       0.749   1.917   3.906  0.00  0.00    +0.000 A 
ATOM      6  C   UNL     1       0.289   2.777   4.889  0.00  0.00    +0.000 A 
ATOM      7  C   UNL     1       0.759   4.083   4.961  0.00  0.00    +0.000 A 
ATOM      8  C   UNL     1       1.736   4.530   4.095  0.00  0.00    +0.000 A 
ATOM      9  C   UNL     1       2.227   3.660   3.159  0.00  0.00    +0.000 A 
ATOM     10  C   UNL     1       1.736   2.359   3.061  0.00  0.00    +0.000 A 
BRANCH   8  11
ATOM     11  O   UNL     1       2.245   5.812   4.141  0.00  0.00    +0.000 OA
ATOM     12  C   UNL     1       2.143   6.516   5.366  0.00  0.00    +0.000 C 
ENDBRANCH   8  11
ENDBRANCH   4   5
ENDBRANCH   1   3
BRANCH   1  13
ATOM     13  O   UNL     1      -2.145  -1.380   3.390  0.00  0.00    +0.000 OA
BRANCH  13  14
ATOM     14  C   UNL     1      -3.277  -1.179   4.036  0.00  0.00    +0.000 C 
BRANCH  14  15
ATOM     15  C   UNL     1      -4.023  -2.489   4.206  0.00  0.00    +0.000 C 
ATOM     16  C   UNL     1      -5.522  -2.326   4.436  0.00  0.00    +0.000 C 
ENDBRANCH  14  15
BRANCH  14  17
ATOM     17  C   UNL     1      -3.045  -0.532   5.392  0.00  0.00    +0.000 C 
BRANCH  17  18
ATOM     18  C   UNL     1      -3.187   0.955   5.412  0.00  0.00    +0.000 C 
BRANCH  18  20
ATOM     19  C   UNL     1      -3.141   2.605   3.535  0.00  0.00    +0.000 C 
ATOM     20  C   UNL     1      -3.913   1.486   4.202  0.00  0.00    +0.000 C 
ENDBRANCH  18  20
ENDBRANCH  17  18
ENDBRANCH  14  17
ENDBRANCH  13  14
ENDBRANCH   1  13
TORSDOF 9
ENDMDL
MODEL 2
REMARK VINA RESULT:      -3.8      1.572      6.850
REMARK  Name = s3_orig_f12_ligand
REMARK  12 active torsions:
REMARK  status: ('A' for Active; 'I' for Inactive)
REMARK    1  A    between atoms: C_1  and  C_2
REMARK    2  A    between atoms: C_2  and  C_3
REMARK    3  A    between atoms: C_3  and  C_4
REMARK    4  A    between atoms: C_4  and  C_5
REMARK    5  A    between atoms: C_5  and  C_6
REMARK    6  A    between atoms: C_5  and  O_8
REMARK    7  A    between atoms: C_6  and  C_7
REMARK    8  A    between atoms: O_8  and  C_9
REMARK    9  A    between atoms: C_9  and  C_11
REMARK   10  A    between atoms: C_12  and  C_13
REMARK   11  A    between atoms: C_16  and  O_17
REMARK   12  A    between atoms: O_17  and  C_18
REMARK                            x       y       z     vdW  Elec       q    Type
REMARK                         _______ _______ _______ _____ _____    ______ ____
ROOT
ATOM      1  C   UNL     1       1.909   3.900   2.894  0.00  0.00    +0.000 C 
ATOM      2  O   UNL     1       2.285   4.432   1.882  0.00  0.00    +0.000 OA
ENDROOT
BRANCH   1   3
ATOM      3  C   UNL     1       1.178   2.611   2.936  0.00  0.00    +0.000 C 
ATOM      4  C   UNL     1      -0.108   2.541   3.269  0.00  0.00    +0.000 C 
BRANCH   4   5
ATOM      5  C   UNL     1      -0.866   1.274   3.423  0.00  0.00    +0.000 A 
ATOM      6  C   UNL     1      -0.285   0.083   3.019  0.00  0.00    +0.000 A 
ATOM      7  C   UNL     1      -1.002  -1.107   3.075  0.00  0.00    +0.000 A 
ATOM      8  C   UNL     1      -2.283  -1.136   3.589  0.00  0.00    +0.000 A 
ATOM      9  C   UNL     1      -2.833   0.035   4.036  0.00  0.00    +0.000 A 
ATOM     10  C   UNL     1      -2.131   1.237   3.953  0.00  0.00    +0.000 A 
BRANCH   8  11
ATOM     11  O   UNL     1      -3.025  -2.296   3.680  0.00  0.00    +0.000 OA
ATOM     12  C   UNL     1      -4.312  -2.208   4.264  0.00  0.00    +0.000 C 
ENDBRANCH   8  11
ENDBRANCH   4   5
ENDBRANCH   1   3
BRANCH   1  13
ATOM     13  O   UNL     1       2.113   4.475   3.972  0.00  0.00    +0.000 OA
BRANCH  13  14
ATOM     14  C   UNL     1       2.018   5.252   5.033  0.00  0.00    +0.000 C 
BRANCH  14  15
ATOM     15  C   UNL     1       0.823   6.178   4.899  0.00  0.00    +0.000 C 
ATOM     16  C   UNL     1      -0.480   5.592   5.430  0.00  0.00    +0.000 C 
ENDBRANCH  14  15
BRANCH  14  17
ATOM     17  C   UNL     1       1.908   4.443   6.315  0.00  0.00    +0.000 C 
BRANCH  17  18
ATOM     18  C   UNL     1       2.830   3.270   6.400  0.00  0.00    +0.000 C 
BRANCH  18  20
ATOM     19  C   UNL     1       0.664   2.116   6.870  0.00  0.00    +0.000 C 
ATOM     20  C   UNL     1       2.097   1.954   6.411  0.00  0.00    +0.000 C 
ENDBRANCH  18  20
ENDBRANCH  17  18
ENDBRANCH  14  17
ENDBRANCH  13  14
ENDBRANCH   1  13
TORSDOF 9
ENDMDL
MODEL 3
REMARK VINA RESULT:      -3.7      1.245      2.230
REMARK  Name = s3_orig_f12_ligand
REMARK  12 active torsions:
REMARK  status: ('A' for Active; 'I' for Inactive)
REMARK    1  A    between atoms: C_1  and  C_2
REMARK    2  A    between atoms: C_2  and  C_3
REMARK    3  A    between atoms: C_3  and  C_4
REMARK    4  A    between atoms: C_4  and  C_5
REMARK    5  A    between atoms: C_5  and  C_6
REMARK    6  A    between atoms: C_5  and  O_8
REMARK    7  A    between atoms: C_6  and  C_7
REMARK    8  A    between atoms: O_8  and  C_9
REMARK    9  A    between atoms: C_9  and  C_11
REMARK   10  A    between atoms: C_12  and  C_13
REMARK   11  A    between atoms: C_16  and  O_17
REMARK   12  A    between atoms: O_17  and  C_18
REMARK                            x       y       z     vdW  Elec       q    Type
REMARK                         _______ _______ _______ _____ _____    ______ ____
ROOT
ATOM      1  C   UNL     1      -0.995  -0.557   2.576  0.00  0.00    +0.000 C 
ATOM      2  O   UNL     1      -0.782  -1.165   1.558  0.00  0.00    +0.000 OA
ENDROOT
BRANCH   1   3
ATOM      3  C   UNL     1      -0.144   0.545   3.081  0.00  0.00    +0.000 C 
ATOM      4  C   UNL     1      -0.598   1.790   3.200  0.00  0.00    +0.000 C 
BRANCH   4   5
ATOM      5  C   UNL     1       0.233   2.951   3.606  0.00  0.00    +0.000 A 
ATOM      6  C   UNL     1       1.282   3.351   2.795  0.00  0.00    +0.000 A 
ATOM      7  C   UNL     1       2.127   4.382   3.191  0.00  0.00    +0.000 A 
ATOM      8  C   UNL     1       1.902   5.067   4.367  0.00  0.00    +0.000 A 
ATOM      9  C   UNL     1       0.832   4.703   5.140  0.00  0.00    +0.000 A 
ATOM     10  C   UNL     1       0.000   3.648   4.765  0.00  0.00    +0.000 A 
BRANCH   8  11
ATOM     11  O   UNL     1       2.703   6.107   4.791  0.00  0.00    +0.000 OA
ATOM     12  C   UNL     1       2.138   7.050   5.684  0.00  0.00    +0.000 C 
ENDBRANCH   8  11
ENDBRANCH   4   5
ENDBRANCH   1   3
BRANCH   1  13
ATOM     13  O   UNL     1      -1.968  -0.889   3.266  0.00  0.00    +0.000 OA
BRANCH  13  14
ATOM     14  C   UNL     1      -3.061  -0.885   4.005  0.00  0.00    +0.000 C 
BRANCH  14  15
ATOM     15  C   UNL     1      -3.623  -2.290   4.117  0.00  0.00    +0.000 C 
ATOM     16  C   UNL     1      -5.124  -2.340   4.382  0.00  0.00    +0.000 C 
ENDBRANCH  14  15
BRANCH  14  17
ATOM     17  C   UNL     1      -2.801  -0.316   5.391  0.00  0.00    +0.000 C 
BRANCH  17  18
ATOM     18  C   UNL     1      -2.074  -1.231   6.320  0.00  0.00    +0.000 C 
BRANCH  18  20
ATOM     19  C   UNL     1       0.334  -1.792   5.954  0.00  0.00    +0.000 C 
ATOM     20  C   UNL     1      -0.647  -0.808   6.555  0.00  0.00    +0.000 C 
ENDBRANCH  18  20
ENDBRANCH  17  18
ENDBRANCH  14  17
ENDBRANCH  13  14
ENDBRANCH   1  13
TORSDOF 9
ENDMDL
MODEL 4
REMARK VINA RESULT:      -3.6      1.032      2.656
REMARK  Name = s3_orig_f12_ligand
REMARK  12 active torsions:
REMARK  status: ('A' for Active; 'I' for Inactive)
REMARK    1  A    between atoms: C_1  and  C_2
REMARK    2  A    between atoms: C_2  and  C_3
REMARK    3  A    between atoms: C_3  and  C_4
REMARK    4  A    between atoms: C_4  and  C_5
REMARK    5  A    between atoms: C_5  and  C_6
REMARK    6  A    between atoms: C_5  and  O_8
REMARK    7  A    between atoms: C_6  and  C_7
REMARK    8  A    between atoms: O_8  and  C_9
REMARK    9  A    between atoms: C_9  and  C_11
REMARK   10  A    between atoms: C_12  and  C_13
REMARK   11  A    between atoms: C_16  and  O_17
REMARK   12  A    between atoms: O_17  and  C_18
REMARK                            x       y       z     vdW  Elec       q    Type
REMARK                         _______ _______ _______ _____ _____    ______ ____
ROOT
ATOM      1  C   UNL     1      -0.953  -0.583   2.696  0.00  0.00    +0.000 C 
ATOM      2  O   UNL     1      -0.821  -1.062   1.599  0.00  0.00    +0.000 OA
ENDROOT
BRANCH   1   3
ATOM      3  C   UNL     1      -0.131   0.532   3.222  0.00  0.00    +0.000 C 
ATOM      4  C   UNL     1      -0.540   1.797   3.167  0.00  0.00    +0.000 C 
BRANCH   4   5
ATOM      5  C   UNL     1       0.278   2.962   3.587  0.00  0.00    +0.000 A 
ATOM      6  C   UNL     1       1.307   3.399   2.768  0.00  0.00    +0.000 A 
ATOM      7  C   UNL     1       2.140   4.435   3.174  0.00  0.00    +0.000 A 
ATOM      8  C   UNL     1       1.923   5.089   4.370  0.00  0.00    +0.000 A 
ATOM      9  C   UNL     1       0.872   4.689   5.151  0.00  0.00    +0.000 A 
ATOM     10  C   UNL     1       0.052   3.629   4.764  0.00  0.00    +0.000 A 
BRANCH   8  11
ATOM     11  O   UNL     1       2.713   6.133   4.804  0.00  0.00    +0.000 OA
ATOM     12  C   UNL     1       2.157   7.028   5.751  0.00  0.00    +0.000 C 
ENDBRANCH   8  11
ENDBRANCH   4   5
ENDBRANCH   1   3
BRANCH   1  13
ATOM     13  O   UNL     1      -1.805  -1.069   3.451  0.00  0.00    +0.000 OA
BRANCH  13  14
ATOM     14  C   UNL     1      -2.793  -1.236   4.309  0.00  0.00    +0.000 C 
BRANCH  14  15
ATOM     15  C   UNL     1      -3.682  -0.005   4.331  0.00  0.00    +0.000 C 
ATOM     16  C   UNL     1      -3.404   0.941   5.493  0.00  0.00    +0.000 C 
ENDBRANCH  14  15
BRANCH  14  17
ATOM     17  C   UNL     1      -3.620  -2.469   3.983  0.00  0.00    +0.000 C 
BRANCH  17  18
ATOM     18  C   UNL     1      -5.041  -2.412   4.440  0.00  0.00    +0.000 C 
BRANCH  18  20
ATOM     19  C   UNL     1      -5.810  -1.964   6.776  0.00  0.00    +0.000 C 
ATOM     20  C   UNL     1      -5.232  -2.986   5.821  0.00  0.00    +0.000 C 
ENDBRANCH  18  20
ENDBRANCH  17  18
ENDBRANCH  14  17
ENDBRANCH  13  14
ENDBRANCH   1  13
TORSDOF 9
ENDMDL
MODEL 5
REMARK VINA RESULT:      -3.4      2.495      7.474
REMARK  Name = s3_orig_f12_ligand
REMARK  12 active torsions:
REMARK  status: ('A' for Active; 'I' for Inactive)
REMARK    1  A    between atoms: C_1  and  C_2
REMARK    2  A    between atoms: C_2  and  C_3
REMARK    3  A    between atoms: C_3  and  C_4
REMARK    4  A    between atoms: C_4  and  C_5
REMARK    5  A    between atoms: C_5  and  C_6
REMARK    6  A    between atoms: C_5  and  O_8
REMARK    7  A    between atoms: C_6  and  C_7
REMARK    8  A    between atoms: O_8  and  C_9
REMARK    9  A    between atoms: C_9  and  C_11
REMARK   10  A    between atoms: C_12  and  C_13
REMARK   11  A    between atoms: C_16  and  O_17
REMARK   12  A    between atoms: O_17  and  C_18
REMARK                            x       y       z     vdW  Elec       q    Type
REMARK                         _______ _______ _______ _____ _____    ______ ____
ROOT
ATOM      1  C   UNL     1      -0.808  -0.841   2.535  0.00  0.00    +0.000 C 
ATOM      2  O   UNL     1      -0.854  -0.914   1.334  0.00  0.00    +0.000 OA
ENDROOT
BRANCH   1   3
ATOM      3  C   UNL     1      -1.355  -1.867   3.453  0.00  0.00    +0.000 C 
ATOM      4  C   UNL     1      -2.639  -1.890   3.801  0.00  0.00    +0.000 C 
BRANCH   4   5
ATOM      5  C   UNL     1      -3.223  -2.829   4.790  0.00  0.00    +0.000 A 
ATOM      6  C   UNL     1      -4.472  -3.378   4.549  0.00  0.00    +0.000 A 
ATOM      7  C   UNL     1      -5.079  -4.196   5.495  0.00  0.00    +0.000 A 
ATOM      8  C   UNL     1      -4.425  -4.527   6.664  0.00  0.00    +0.000 A 
ATOM      9  C   UNL     1      -3.169  -4.026   6.875  0.00  0.00    +0.000 A 
ATOM     10  C   UNL     1      -2.569  -3.179   5.944  0.00  0.00    +0.000 A 
BRANCH   8  11
ATOM     11  O   UNL     1      -4.981  -5.349   7.623  0.00  0.00    +0.000 OA
ATOM     12  C   UNL     1      -4.229  -6.475   8.040  0.00  0.00    +0.000 C 
ENDBRANCH   8  11
ENDBRANCH   4   5
ENDBRANCH   1   3
BRANCH   1  13
ATOM     13  O   UNL     1      -0.301   0.168   3.043  0.00  0.00    +0.000 OA
BRANCH  13  14
ATOM     14  C   UNL     1      -0.109   1.348   3.600  0.00  0.00    +0.000 C 
BRANCH  14  15
ATOM     15  C   UNL     1      -1.323   1.742   4.423  0.00  0.00    +0.000 C 
ATOM     16  C   UNL     1      -2.491   2.266   3.595  0.00  0.00    +0.000 C 
ENDBRANCH  14  15
BRANCH  14  17
ATOM     17  C   UNL     1       1.137   1.364   4.471  0.00  0.00    +0.000 C 
BRANCH  17  18
ATOM     18  C   UNL     1       2.251   2.216   3.958  0.00  0.00    +0.000 C 
BRANCH  18  20
ATOM     19  C   UNL     1       1.976   4.573   3.175  0.00  0.00    +0.000 C 
ATOM     20  C   UNL     1       1.825   3.109   2.821  0.00  0.00    +0.000 C 
ENDBRANCH  18  20
ENDBRANCH  17  18
ENDBRANCH  14  17
ENDBRANCH  13  14
ENDBRANCH   1  13
TORSDOF 9
ENDMDL
MODEL 6
REMARK VINA RESULT:      -3.4      3.625      6.321
REMARK  Name = s3_orig_f12_ligand
REMARK  12 active torsions:
REMARK  status: ('A' for Active; 'I' for Inactive)
REMARK    1  A    between atoms: C_1  and  C_2
REMARK    2  A    between atoms: C_2  and  C_3
REMARK    3  A    between atoms: C_3  and  C_4
REMARK    4  A    between atoms: C_4  and  C_5
REMARK    5  A    between atoms: C_5  and  C_6
REMARK    6  A    between atoms: C_5  and  O_8
REMARK    7  A    between atoms: C_6  and  C_7
REMARK    8  A    between atoms: O_8  and  C_9
REMARK    9  A    between atoms: C_9  and  C_11
REMARK   10  A    between atoms: C_12  and  C_13
REMARK   11  A    between atoms: C_16  and  O_17
REMARK   12  A    between atoms: O_17  and  C_18
REMARK                            x       y       z     vdW  Elec       q    Type
REMARK                         _______ _______ _______ _____ _____    ______ ____
ROOT
ATOM      1  C   UNL     1      -3.205   1.154   4.391  0.00  0.00    +0.000 C 
ATOM      2  O   UNL     1      -4.010   0.594   5.091  0.00  0.00    +0.000 OA
ENDROOT
BRANCH   1   3
ATOM      3  C   UNL     1      -3.512   2.333   3.548  0.00  0.00    +0.000 C 
ATOM      4  C   UNL     1      -4.752   2.619   3.161  0.00  0.00    +0.000 C 
BRANCH   4   5
ATOM      5  C   UNL     1      -5.108   3.727   2.239  0.00  0.00    +0.000 A 
ATOM      6  C   UNL     1      -5.559   3.430   0.963  0.00  0.00    +0.000 A 
ATOM      7  C   UNL     1      -5.821   4.447   0.052  0.00  0.00    +0.000 A 
ATOM      8  C   UNL     1      -5.696   5.771   0.418  0.00  0.00    +0.000 A 
ATOM      9  C   UNL     1      -5.301   6.061   1.696  0.00  0.00    +0.000 A 
ATOM     10  C   UNL     1      -5.005   5.046   2.604  0.00  0.00    +0.000 A 
BRANCH   8  11
ATOM     11  O   UNL     1      -5.962   6.813  -0.447  0.00  0.00    +0.000 OA
ATOM     12  C   UNL     1      -5.679   6.615  -1.821  0.00  0.00    +0.000 C 
ENDBRANCH   8  11
ENDBRANCH   4   5
ENDBRANCH   1   3
BRANCH   1  13
ATOM     13  O   UNL     1      -2.053   0.702   4.343  0.00  0.00    +0.000 OA
BRANCH  13  14
ATOM     14  C   UNL     1      -0.756   0.551   4.157  0.00  0.00    +0.000 C 
BRANCH  14  15
ATOM     15  C   UNL     1      -0.481   0.089   2.738  0.00  0.00    +0.000 C 
ATOM     16  C   UNL     1      -0.835  -1.371   2.480  0.00  0.00    +0.000 C 
ENDBRANCH  14  15
BRANCH  14  17
ATOM     17  C   UNL     1       0.007   1.834   4.444  0.00  0.00    +0.000 C 
BRANCH  17  18
ATOM     18  C   UNL     1       0.350   2.645   3.238  0.00  0.00    +0.000 C 
BRANCH  18  20
ATOM     19  C   UNL     1       2.244   4.127   2.558  0.00  0.00    +0.000 C 
ATOM     20  C   UNL     1       1.836   2.739   3.003  0.00  0.00    +0.000 C 
ENDBRANCH  18  20
ENDBRANCH  17  18
ENDBRANCH  14  17
ENDBRANCH  13  14
ENDBRANCH   1  13
TORSDOF 9
ENDMDL
MODEL 7
REMARK VINA RESULT:      -3.4      2.394      7.509
REMARK  Name = s3_orig_f12_ligand
REMARK  12 active torsions:
REMARK  status: ('A' for Active; 'I' for Inactive)
REMARK    1  A    between atoms: C_1  and  C_2
REMARK    2  A    between atoms: C_2  and  C_3
REMARK    3  A    between atoms: C_3  and  C_4
REMARK    4  A    between atoms: C_4  and  C_5
REMARK    5  A    between atoms: C_5  and  C_6
REMARK    6  A    between atoms: C_5  and  O_8
REMARK    7  A    between atoms: C_6  and  C_7
REMARK    8  A    between atoms: O_8  and  C_9
REMARK    9  A    between atoms: C_9  and  C_11
REMARK   10  A    between atoms: C_12  and  C_13
REMARK   11  A    between atoms: C_16  and  O_17
REMARK   12  A    between atoms: O_17  and  C_18
REMARK                            x       y       z     vdW  Elec       q    Type
REMARK                         _______ _______ _______ _____ _____    ______ ____
ROOT
ATOM      1  C   UNL     1       0.854  -0.057   5.568  0.00  0.00    +0.000 C 
ATOM      2  O   UNL     1       1.691   0.040   6.427  0.00  0.00    +0.000 OA
ENDROOT
BRANCH   1   3
ATOM      3  C   UNL     1      -0.112  -1.176   5.468  0.00  0.00    +0.000 C 
ATOM      4  C   UNL     1      -1.379  -0.984   5.111  0.00  0.00    +0.000 C 
BRANCH   4   5
ATOM      5  C   UNL     1      -2.414  -2.047   5.088  0.00  0.00    +0.000 A 
ATOM      6  C   UNL     1      -2.374  -3.054   6.040  0.00  0.00    +0.000 A 
ATOM      7  C   UNL     1      -3.281  -4.106   5.993  0.00  0.00    +0.000 A 
ATOM      8  C   UNL     1      -4.276  -4.139   5.037  0.00  0.00    +0.000 A 
ATOM      9  C   UNL     1      -4.345  -3.114   4.131  0.00  0.00    +0.000 A 
ATOM     10  C   UNL     1      -3.418  -2.073   4.153  0.00  0.00    +0.000 A 
BRANCH   8  11
ATOM     11  O   UNL     1      -5.207  -5.154   4.964  0.00  0.00    +0.000 OA
ATOM     12  C   UNL     1      -6.456  -4.858   4.364  0.00  0.00    +0.000 C 
ENDBRANCH   8  11
ENDBRANCH   4   5
ENDBRANCH   1   3
BRANCH   1  13
ATOM     13  O   UNL     1       0.812   0.813   4.688  0.00  0.00    +0.000 OA
BRANCH  13  14
ATOM     14  C   UNL     1       0.958   1.492   3.565  0.00  0.00    +0.000 C 
BRANCH  14  15
ATOM     15  C   UNL     1      -0.358   2.134   3.167  0.00  0.00    +0.000 C 
ATOM     16  C   UNL     1      -1.116   2.770   4.327  0.00  0.00    +0.000 C 
ENDBRANCH  14  15
BRANCH  14  17
ATOM     17  C   UNL     1       2.040   2.553   3.685  0.00  0.00    +0.000 C 
BRANCH  17  18
ATOM     18  C   UNL     1       2.061   3.556   2.579  0.00  0.00    +0.000 C 
BRANCH  18  20
ATOM     19  C   UNL     1       1.928   5.041   4.585  0.00  0.00    +0.000 C 
ATOM     20  C   UNL     1       2.096   4.976   3.082  0.00  0.00    +0.000 C 
ENDBRANCH  18  20
ENDBRANCH  17  18
ENDBRANCH  14  17
ENDBRANCH  13  14
ENDBRANCH   1  13
TORSDOF 9
ENDMDL
MODEL 8
REMARK VINA RESULT:      -3.3      2.511      7.408
REMARK  Name = s3_orig_f12_ligand
REMARK  12 active torsions:
REMARK  status: ('A' for Active; 'I' for Inactive)
REMARK    1  A    between atoms: C_1  and  C_2
REMARK    2  A    between atoms: C_2  and  C_3
REMARK    3  A    between atoms: C_3  and  C_4
REMARK    4  A    between atoms: C_4  and  C_5
REMARK    5  A    between atoms: C_5  and  C_6
REMARK    6  A    between atoms: C_5  and  O_8
REMARK    7  A    between atoms: C_6  and  C_7
REMARK    8  A    between atoms: O_8  and  C_9
REMARK    9  A    between atoms: C_9  and  C_11
REMARK   10  A    between atoms: C_12  and  C_13
REMARK   11  A    between atoms: C_16  and  O_17
REMARK   12  A    between atoms: O_17  and  C_18
REMARK                            x       y       z     vdW  Elec       q    Type
REMARK                         _______ _______ _______ _____ _____    ______ ____
ROOT
ATOM      1  C   UNL     1      -0.753  -0.804   2.602  0.00  0.00    +0.000 C 
ATOM      2  O   UNL     1      -0.914  -0.772   1.409  0.00  0.00    +0.000 OA
ENDROOT
BRANCH   1   3
ATOM      3  C   UNL     1      -1.321  -1.844   3.491  0.00  0.00    +0.000 C 
ATOM      4  C   UNL     1      -2.621  -1.902   3.768  0.00  0.00    +0.000 C 
BRANCH   4   5
ATOM      5  C   UNL     1      -3.233  -2.856   4.726  0.00  0.00    +0.000 A 
ATOM      6  C   UNL     1      -2.513  -3.253   5.842  0.00  0.00    +0.000 A 
ATOM      7  C   UNL     1      -3.029  -4.208   6.711  0.00  0.00    +0.000 A 
ATOM      8  C   UNL     1      -4.289  -4.734   6.515  0.00  0.00    +0.000 A 
ATOM      9  C   UNL     1      -5.018  -4.300   5.440  0.00  0.00    +0.000 A 
ATOM     10  C   UNL     1      -4.494  -3.367   4.547  0.00  0.00    +0.000 A 
BRANCH   8  11
ATOM     11  O   UNL     1      -4.847  -5.670   7.361  0.00  0.00    +0.000 OA
ATOM     12  C   UNL     1      -3.973  -6.390   8.213  0.00  0.00    +0.000 C 
ENDBRANCH   8  11
ENDBRANCH   4   5
ENDBRANCH   1   3
BRANCH   1  13
ATOM     13  O   UNL     1      -0.099   0.105   3.131  0.00  0.00    +0.000 OA
BRANCH  13  14
ATOM     14  C   UNL     1       0.382   0.995   3.977  0.00  0.00    +0.000 C 
BRANCH  14  15
ATOM     15  C   UNL     1       1.532   1.754   3.341  0.00  0.00    +0.000 C 
ATOM     16  C   UNL     1       2.552   2.290   4.340  0.00  0.00    +0.000 C 
ENDBRANCH  14  15
BRANCH  14  17
ATOM     17  C   UNL     1      -0.690   1.967   4.443  0.00  0.00    +0.000 C 
BRANCH  17  18
ATOM     18  C   UNL     1      -1.648   1.413   5.445  0.00  0.00    +0.000 C 
BRANCH  18  20
ATOM     19  C   UNL     1      -3.197   1.921   3.552  0.00  0.00    +0.000 C 
ATOM     20  C   UNL     1      -3.086   1.552   5.015  0.00  0.00    +0.000 C 
ENDBRANCH  18  20
ENDBRANCH  17  18
ENDBRANCH  14  17
ENDBRANCH  13  14
ENDBRANCH   1  13
TORSDOF 9
ENDMDL
MODEL 9
REMARK VINA RESULT:      -3.3      2.558      7.543
REMARK  Name = s3_orig_f12_ligand
REMARK  12 active torsions:
REMARK  status: ('A' for Active; 'I' for Inactive)
REMARK    1  A    between atoms: C_1  and  C_2
REMARK    2  A    between atoms: C_2  and  C_3
REMARK    3  A    between atoms: C_3  and  C_4
REMARK    4  A    between atoms: C_4  and  C_5
REMARK    5  A    between atoms: C_5  and  C_6
REMARK    6  A    between atoms: C_5  and  O_8
REMARK    7  A    between atoms: C_6  and  C_7
REMARK    8  A    between atoms: O_8  and  C_9
REMARK    9  A    between atoms: C_9  and  C_11
REMARK   10  A    between atoms: C_12  and  C_13
REMARK   11  A    between atoms: C_16  and  O_17
REMARK   12  A    between atoms: O_17  and  C_18
REMARK                            x       y       z     vdW  Elec       q    Type
REMARK                         _______ _______ _______ _____ _____    ______ ____
ROOT
ATOM      1  C   UNL     1      -0.800  -0.694   2.697  0.00  0.00    +0.000 C 
ATOM      2  O   UNL     1      -0.839  -0.866   1.506  0.00  0.00    +0.000 OA
ENDROOT
BRANCH   1   3
ATOM      3  C   UNL     1      -1.229  -1.699   3.698  0.00  0.00    +0.000 C 
ATOM      4  C   UNL     1      -2.512  -1.990   3.900  0.00  0.00    +0.000 C 
BRANCH   4   5
ATOM      5  C   UNL     1      -3.006  -2.912   4.953  0.00  0.00    +0.000 A 
ATOM      6  C   UNL     1      -4.266  -3.474   4.825  0.00  0.00    +0.000 A 
ATOM      7  C   UNL     1      -4.787  -4.276   5.834  0.00  0.00    +0.000 A 
ATOM      8  C   UNL     1      -4.039  -4.577   6.954  0.00  0.00    +0.000 A 
ATOM      9  C   UNL     1      -2.773  -4.063   7.051  0.00  0.00    +0.000 A 
ATOM     10  C   UNL     1      -2.257  -3.232   6.057  0.00  0.00    +0.000 A 
BRANCH   8  11
ATOM     11  O   UNL     1      -4.508  -5.382   7.971  0.00  0.00    +0.000 OA
ATOM     12  C   UNL     1      -5.550  -4.872   8.785  0.00  0.00    +0.000 C 
ENDBRANCH   8  11
ENDBRANCH   4   5
ENDBRANCH   1   3
BRANCH   1  13
ATOM     13  O   UNL     1      -0.409   0.402   3.120  0.00  0.00    +0.000 OA
BRANCH  13  14
ATOM     14  C   UNL     1      -0.040   1.406   3.891  0.00  0.00    +0.000 C 
BRANCH  14  15
ATOM     15  C   UNL     1       1.093   0.976   4.805  0.00  0.00    +0.000 C 
ATOM     16  C   UNL     1       0.634   0.481   6.173  0.00  0.00    +0.000 C 
ENDBRANCH  14  15
BRANCH  14  17
ATOM     17  C   UNL     1       0.381   2.618   3.076  0.00  0.00    +0.000 C 
BRANCH  17  18
ATOM     18  C   UNL     1       1.856   2.778   2.905  0.00  0.00    +0.000 C 
BRANCH  18  20
ATOM     19  C   UNL     1       1.716   5.121   3.763  0.00  0.00    +0.000 C 
ATOM     20  C   UNL     1       2.264   4.213   2.684  0.00  0.00    +0.000 C 
ENDBRANCH  18  20
ENDBRANCH  17  18
ENDBRANCH  14  17
ENDBRANCH  13  14
ENDBRANCH   1  13
TORSDOF 9
ENDMDL
