REMARK  Name = bg33_1_ligand
REMARK  12 active torsions:
REMARK  status: ('A' for Active; 'I' for Inactive)
REMARK    1  A    between atoms: C_1  and  C_2
REMARK    2  A    between atoms: C_2  and  C_3
REMARK    3  A    between atoms: C_3  and  C_4
REMARK    4  A    between atoms: C_4  and  C_5
REMARK    5  A    between atoms: C_5  and  C_6
REMARK    6  A    between atoms: C_5  and  O_8
REMARK    7  A    between atoms: C_6  and  C_7
REMARK    8  A    between atoms: O_8  and  C_9
REMARK    9  A    between atoms: C_9  and  C_11
REMARK   10  A    between atoms: C_12  and  C_13
REMARK   11  A    between atoms: C_16  and  O_17
REMARK   12  A    between atoms: O_17  and  C_18
REMARK                            x       y       z     vdW  Elec       q    Type
REMARK                         _______ _______ _______ _____ _____    ______ ____
ROOT
ATOM      1  C   UNL     1       0.237  -5.938   0.352  0.00  0.00    +0.000 C 
ATOM      2  O   UNL     1      -0.862  -5.455   0.428  0.00  0.00    +0.000 OA
ENDROOT
BRANCH   1   3
ATOM      3  C   UNL     1       0.560  -6.849  -0.672  0.00  0.00    +0.000 C 
ATOM      4  C   UNL     1      -0.326  -7.665  -1.034  0.00  0.00    +0.000 C 
BRANCH   4   5
ATOM      5  C   UNL     1      -0.114  -8.709  -1.908  0.00  0.00    +0.000 A 
ATOM      6  C   UNL     1       0.361  -8.502  -3.145  0.00  0.00    +0.000 A 
ATOM      7  C   UNL     1       0.574  -9.517  -4.018  0.00  0.00    +0.000 A 
ATOM      8  C   UNL     1       0.320 -10.782  -3.575  0.00  0.00    +0.000 A 
ATOM      9  C   UNL     1      -0.135 -11.040  -2.366  0.00  0.00    +0.000 A 
ATOM     10  C   UNL     1      -0.378  -9.999  -1.538  0.00  0.00    +0.000 A 
BRANCH   8  11
ATOM     11  O   UNL     1       0.494 -11.811  -4.369  0.00  0.00    +0.000 OA
ATOM     12  C   UNL     1       1.374 -12.760  -3.872  0.00  0.00    +0.000 C 
ENDBRANCH   8  11
ENDBRANCH   4   5
ENDBRANCH   1   3
BRANCH   1  13
ATOM     13  O   UNL     1       1.142  -5.619   1.213  0.00  0.00    +0.000 OA
BRANCH  13  14
ATOM     14  C   UNL     1       0.695  -4.874   2.128  0.00  0.00    +0.000 C 
BRANCH  14  15
ATOM     15  C   UNL     1      -0.309  -5.572   2.981  0.00  0.00    +0.000 C 
ATOM     16  C   UNL     1       0.194  -6.732   3.611  0.00  0.00    +0.000 C 
ENDBRANCH  14  15
BRANCH  14  17
ATOM     17  C   UNL     1       1.642  -4.051   2.756  0.00  0.00    +0.000 C 
BRANCH  17  18
ATOM     18  C   UNL     1       2.938  -4.622   2.828  0.00  0.00    +0.000 C 
BRANCH  18  20
ATOM     19  C   UNL     1       4.168  -2.841   1.729  0.00  0.00    +0.000 C 
ATOM     20  C   UNL     1       3.783  -3.466   3.051  0.00  0.00    +0.000 C 
ENDBRANCH  18  20
ENDBRANCH  17  18
ENDBRANCH  14  17
ENDBRANCH  13  14
ENDBRANCH   1  13
TORSDOF 9
