MODEL 1
REMARK VINA RESULT:      -3.2      0.000      0.000
REMARK  Name = bg33_1_ligand
REMARK  12 active torsions:
REMARK  status: ('A' for Active; 'I' for Inactive)
REMARK    1  A    between atoms: C_1  and  C_2
REMARK    2  A    between atoms: C_2  and  C_3
REMARK    3  A    between atoms: C_3  and  C_4
REMARK    4  A    between atoms: C_4  and  C_5
REMARK    5  A    between atoms: C_5  and  C_6
REMARK    6  A    between atoms: C_5  and  O_8
REMARK    7  A    between atoms: C_6  and  C_7
REMARK    8  A    between atoms: O_8  and  C_9
REMARK    9  A    between atoms: C_9  and  C_11
REMARK   10  A    between atoms: C_12  and  C_13
REMARK   11  A    between atoms: C_16  and  O_17
REMARK   12  A    between atoms: O_17  and  C_18
REMARK                            x       y       z     vdW  Elec       q    Type
REMARK                         _______ _______ _______ _____ _____    ______ ____
ROOT
ATOM      1  C   UNL     1       1.657  -6.132   9.329  0.00  0.00    +0.000 C 
ATOM      2  O   UNL     1       2.316  -5.419  10.040  0.00  0.00    +0.000 OA
ENDROOT
BRANCH   1   3
ATOM      3  C   UNL     1       1.580  -7.518   9.563  0.00  0.00    +0.000 C 
ATOM      4  C   UNL     1       1.338  -8.267   8.583  0.00  0.00    +0.000 C 
BRANCH   4   5
ATOM      5  C   UNL     1       1.082  -9.618   8.678  0.00  0.00    +0.000 A 
ATOM      6  C   UNL     1       0.198 -10.222   7.871  0.00  0.00    +0.000 A 
ATOM      7  C   UNL     1      -0.068 -11.549   7.952  0.00  0.00    +0.000 A 
ATOM      8  C   UNL     1       0.635 -12.269   8.873  0.00  0.00    +0.000 A 
ATOM      9  C   UNL     1       1.523 -11.726   9.681  0.00  0.00    +0.000 A 
ATOM     10  C   UNL     1       1.729 -10.392   9.602  0.00  0.00    +0.000 A 
BRANCH   8  11
ATOM     11  O   UNL     1       0.423 -13.555   9.014  0.00  0.00    +0.000 OA
ATOM     12  C   UNL     1       0.504 -14.269   7.828  0.00  0.00    +0.000 C 
ENDBRANCH   8  11
ENDBRANCH   4   5
ENDBRANCH   1   3
BRANCH   1  13
ATOM     13  O   UNL     1       1.004  -5.628   8.338  0.00  0.00    +0.000 OA
BRANCH  13  14
ATOM     14  C   UNL     1       0.169  -4.756   8.706  0.00  0.00    +0.000 C 
BRANCH  14  15
ATOM     15  C   UNL     1       0.116  -3.598   7.769  0.00  0.00    +0.000 C 
ATOM     16  C   UNL     1       0.453  -2.367   8.374  0.00  0.00    +0.000 C 
ENDBRANCH  14  15
BRANCH  14  17
ATOM     17  C   UNL     1      -1.040  -5.253   9.215  0.00  0.00    +0.000 C 
BRANCH  17  18
ATOM     18  C   UNL     1      -2.034  -5.464   8.226  0.00  0.00    +0.000 C 
BRANCH  18  20
ATOM     19  C   UNL     1      -2.017  -7.424   6.794  0.00  0.00    +0.000 C 
ATOM     20  C   UNL     1      -2.164  -6.907   8.208  0.00  0.00    +0.000 C 
ENDBRANCH  18  20
ENDBRANCH  17  18
ENDBRANCH  14  17
ENDBRANCH  13  14
ENDBRANCH   1  13
TORSDOF 9
ENDMDL
MODEL 2
REMARK VINA RESULT:      -3.2      3.243      5.843
REMARK  Name = bg33_1_ligand
REMARK  12 active torsions:
REMARK  status: ('A' for Active; 'I' for Inactive)
REMARK    1  A    between atoms: C_1  and  C_2
REMARK    2  A    between atoms: C_2  and  C_3
REMARK    3  A    between atoms: C_3  and  C_4
REMARK    4  A    between atoms: C_4  and  C_5
REMARK    5  A    between atoms: C_5  and  C_6
REMARK    6  A    between atoms: C_5  and  O_8
REMARK    7  A    between atoms: C_6  and  C_7
REMARK    8  A    between atoms: O_8  and  C_9
REMARK    9  A    between atoms: C_9  and  C_11
REMARK   10  A    between atoms: C_12  and  C_13
REMARK   11  A    between atoms: C_16  and  O_17
REMARK   12  A    between atoms: O_17  and  C_18
REMARK                            x       y       z     vdW  Elec       q    Type
REMARK                         _______ _______ _______ _____ _____    ______ ____
ROOT
ATOM      1  C   UNL     1      -0.353  -1.417   7.892  0.00  0.00    +0.000 C 
ATOM      2  O   UNL     1      -1.133  -0.556   8.201  0.00  0.00    +0.000 OA
ENDROOT
BRANCH   1   3
ATOM      3  C   UNL     1      -0.471  -2.722   8.407  0.00  0.00    +0.000 C 
ATOM      4  C   UNL     1       0.218  -3.629   7.874  0.00  0.00    +0.000 C 
BRANCH   4   5
ATOM      5  C   UNL     1       0.098  -4.971   8.163  0.00  0.00    +0.000 A 
ATOM      6  C   UNL     1      -1.024  -5.651   7.881  0.00  0.00    +0.000 A 
ATOM      7  C   UNL     1      -1.160  -6.971   8.160  0.00  0.00    +0.000 A 
ATOM      8  C   UNL     1      -0.085  -7.604   8.711  0.00  0.00    +0.000 A 
ATOM      9  C   UNL     1       1.043  -6.985   8.995  0.00  0.00    +0.000 A 
ATOM     10  C   UNL     1       1.127  -5.659   8.744  0.00  0.00    +0.000 A 
BRANCH   8  11
ATOM     11  O   UNL     1      -0.149  -8.878   9.016  0.00  0.00    +0.000 OA
ATOM     12  C   UNL     1       0.982  -9.597   8.661  0.00  0.00    +0.000 C 
ENDBRANCH   8  11
ENDBRANCH   4   5
ENDBRANCH   1   3
BRANCH   1  13
ATOM     13  O   UNL     1       0.608  -1.153   7.074  0.00  0.00    +0.000 OA
BRANCH  13  14
ATOM     14  C   UNL     1       1.228  -0.098   7.383  0.00  0.00    +0.000 C 
BRANCH  14  15
ATOM     15  C   UNL     1       2.389  -0.371   8.277  0.00  0.00    +0.000 C 
ATOM     16  C   UNL     1       2.898   0.785   8.910  0.00  0.00    +0.000 C 
ENDBRANCH  14  15
BRANCH  14  17
ATOM     17  C   UNL     1       1.393   0.834   6.347  0.00  0.00    +0.000 C 
BRANCH  17  18
ATOM     18  C   UNL     1       1.317   0.266   5.050  0.00  0.00    +0.000 C 
BRANCH  18  20
ATOM     19  C   UNL     1       0.002   1.941   3.884  0.00  0.00    +0.000 C 
ATOM     20  C   UNL     1       1.392   1.430   4.189  0.00  0.00    +0.000 C 
ENDBRANCH  18  20
ENDBRANCH  17  18
ENDBRANCH  14  17
ENDBRANCH  13  14
ENDBRANCH   1  13
TORSDOF 9
ENDMDL
MODEL 3
REMARK VINA RESULT:      -3.2      3.857      8.302
REMARK  Name = bg33_1_ligand
REMARK  12 active torsions:
REMARK  status: ('A' for Active; 'I' for Inactive)
REMARK    1  A    between atoms: C_1  and  C_2
REMARK    2  A    between atoms: C_2  and  C_3
REMARK    3  A    between atoms: C_3  and  C_4
REMARK    4  A    between atoms: C_4  and  C_5
REMARK    5  A    between atoms: C_5  and  C_6
REMARK    6  A    between atoms: C_5  and  O_8
REMARK    7  A    between atoms: C_6  and  C_7
REMARK    8  A    between atoms: O_8  and  C_9
REMARK    9  A    between atoms: C_9  and  C_11
REMARK   10  A    between atoms: C_12  and  C_13
REMARK   11  A    between atoms: C_16  and  O_17
REMARK   12  A    between atoms: O_17  and  C_18
REMARK                            x       y       z     vdW  Elec       q    Type
REMARK                         _______ _______ _______ _____ _____    ______ ____
ROOT
ATOM      1  C   UNL     1       0.280  -5.358   8.438  0.00  0.00    +0.000 C 
ATOM      2  O   UNL     1       1.315  -5.968   8.393  0.00  0.00    +0.000 OA
ENDROOT
BRANCH   1   3
ATOM      3  C   UNL     1       0.151  -4.100   7.818  0.00  0.00    +0.000 C 
ATOM      4  C   UNL     1       0.407  -3.078   8.503  0.00  0.00    +0.000 C 
BRANCH   4   5
ATOM      5  C   UNL     1       0.182  -1.783   8.087  0.00  0.00    +0.000 A 
ATOM      6  C   UNL     1       0.954  -1.201   7.158  0.00  0.00    +0.000 A 
ATOM      7  C   UNL     1       0.747   0.071   6.738  0.00  0.00    +0.000 A 
ATOM      8  C   UNL     1      -0.316   0.738   7.275  0.00  0.00    +0.000 A 
ATOM      9  C   UNL     1      -1.112   0.207   8.180  0.00  0.00    +0.000 A 
ATOM     10  C   UNL     1      -0.848  -1.048   8.608  0.00  0.00    +0.000 A 
BRANCH   8  11
ATOM     11  O   UNL     1      -0.569   1.975   6.922  0.00  0.00    +0.000 OA
ATOM     12  C   UNL     1      -0.244   2.261   5.605  0.00  0.00    +0.000 C 
ENDBRANCH   8  11
ENDBRANCH   4   5
ENDBRANCH   1   3
BRANCH   1  13
ATOM     13  O   UNL     1      -0.735  -5.856   9.058  0.00  0.00    +0.000 OA
BRANCH  13  14
ATOM     14  C   UNL     1      -1.760  -5.927   8.324  0.00  0.00    +0.000 C 
BRANCH  14  15
ATOM     15  C   UNL     1      -1.689  -7.069   7.368  0.00  0.00    +0.000 C 
ATOM     16  C   UNL     1      -2.483  -6.889   6.214  0.00  0.00    +0.000 C 
ENDBRANCH  14  15
BRANCH  14  17
ATOM     17  C   UNL     1      -2.982  -5.672   8.964  0.00  0.00    +0.000 C 
BRANCH  17  18
ATOM     18  C   UNL     1      -3.068  -4.379   9.539  0.00  0.00    +0.000 C 
BRANCH  18  20
ATOM     19  C   UNL     1      -4.881  -4.041   7.962  0.00  0.00    +0.000 C 
ATOM     20  C   UNL     1      -3.524  -3.567   8.429  0.00  0.00    +0.000 C 
ENDBRANCH  18  20
ENDBRANCH  17  18
ENDBRANCH  14  17
ENDBRANCH  13  14
ENDBRANCH   1  13
TORSDOF 9
ENDMDL
MODEL 4
REMARK VINA RESULT:      -3.1     14.855     17.279
REMARK  Name = bg33_1_ligand
REMARK  12 active torsions:
REMARK  status: ('A' for Active; 'I' for Inactive)
REMARK    1  A    between atoms: C_1  and  C_2
REMARK    2  A    between atoms: C_2  and  C_3
REMARK    3  A    between atoms: C_3  and  C_4
REMARK    4  A    between atoms: C_4  and  C_5
REMARK    5  A    between atoms: C_5  and  C_6
REMARK    6  A    between atoms: C_5  and  O_8
REMARK    7  A    between atoms: C_6  and  C_7
REMARK    8  A    between atoms: O_8  and  C_9
REMARK    9  A    between atoms: C_9  and  C_11
REMARK   10  A    between atoms: C_12  and  C_13
REMARK   11  A    between atoms: C_16  and  O_17
REMARK   12  A    between atoms: O_17  and  C_18
REMARK                            x       y       z     vdW  Elec       q    Type
REMARK                         _______ _______ _______ _____ _____    ______ ____
ROOT
ATOM      1  C   UNL     1      -0.564  -0.632  -7.419  0.00  0.00    +0.000 C 
ATOM      2  O   UNL     1       0.080  -0.942  -8.386  0.00  0.00    +0.000 OA
ENDROOT
BRANCH   1   3
ATOM      3  C   UNL     1      -0.006  -0.686  -6.127  0.00  0.00    +0.000 C 
ATOM      4  C   UNL     1       1.248  -0.669  -6.028  0.00  0.00    +0.000 C 
BRANCH   4   5
ATOM      5  C   UNL     1       1.940  -0.869  -4.853  0.00  0.00    +0.000 A 
ATOM      6  C   UNL     1       2.090   0.113  -3.952  0.00  0.00    +0.000 A 
ATOM      7  C   UNL     1       2.768  -0.066  -2.792  0.00  0.00    +0.000 A 
ATOM      8  C   UNL     1       3.269  -1.311  -2.550  0.00  0.00    +0.000 A 
ATOM      9  C   UNL     1       3.138  -2.313  -3.396  0.00  0.00    +0.000 A 
ATOM     10  C   UNL     1       2.495  -2.085  -4.563  0.00  0.00    +0.000 A 
BRANCH   8  11
ATOM     11  O   UNL     1       3.945  -1.554  -1.453  0.00  0.00    +0.000 OA
ATOM     12  C   UNL     1       5.099  -2.294  -1.657  0.00  0.00    +0.000 C 
ENDBRANCH   8  11
ENDBRANCH   4   5
ENDBRANCH   1   3
BRANCH   1  13
ATOM     13  O   UNL     1      -1.784  -0.238  -7.556  0.00  0.00    +0.000 OA
BRANCH  13  14
ATOM     14  C   UNL     1      -1.906   0.652  -8.442  0.00  0.00    +0.000 C 
BRANCH  14  15
ATOM     15  C   UNL     1      -2.863   0.252  -9.513  0.00  0.00    +0.000 C 
ATOM     16  C   UNL     1      -4.153  -0.059  -9.030  0.00  0.00    +0.000 C 
ENDBRANCH  14  15
BRANCH  14  17
ATOM     17  C   UNL     1      -1.951   1.973  -7.971  0.00  0.00    +0.000 C 
BRANCH  17  18
ATOM     18  C   UNL     1      -1.066   2.852  -8.647  0.00  0.00    +0.000 C 
BRANCH  18  20
ATOM     19  C   UNL     1       1.033   2.825  -7.429  0.00  0.00    +0.000 C 
ATOM     20  C   UNL     1      -0.331   3.463  -7.558  0.00  0.00    +0.000 C 
ENDBRANCH  18  20
ENDBRANCH  17  18
ENDBRANCH  14  17
ENDBRANCH  13  14
ENDBRANCH   1  13
TORSDOF 9
ENDMDL
MODEL 5
REMARK VINA RESULT:      -3.1      2.577      8.171
REMARK  Name = bg33_1_ligand
REMARK  12 active torsions:
REMARK  status: ('A' for Active; 'I' for Inactive)
REMARK    1  A    between atoms: C_1  and  C_2
REMARK    2  A    between atoms: C_2  and  C_3
REMARK    3  A    between atoms: C_3  and  C_4
REMARK    4  A    between atoms: C_4  and  C_5
REMARK    5  A    between atoms: C_5  and  C_6
REMARK    6  A    between atoms: C_5  and  O_8
REMARK    7  A    between atoms: C_6  and  C_7
REMARK    8  A    between atoms: O_8  and  C_9
REMARK    9  A    between atoms: C_9  and  C_11
REMARK   10  A    between atoms: C_12  and  C_13
REMARK   11  A    between atoms: C_16  and  O_17
REMARK   12  A    between atoms: O_17  and  C_18
REMARK                            x       y       z     vdW  Elec       q    Type
REMARK                         _______ _______ _______ _____ _____    ______ ____
ROOT
ATOM      1  C   UNL     1       0.596  -5.574   8.812  0.00  0.00    +0.000 C 
ATOM      2  O   UNL     1       1.626  -6.015   8.373  0.00  0.00    +0.000 OA
ENDROOT
BRANCH   1   3
ATOM      3  C   UNL     1       0.388  -4.185   8.915  0.00  0.00    +0.000 C 
ATOM      4  C   UNL     1       0.062  -3.561   7.873  0.00  0.00    +0.000 C 
BRANCH   4   5
ATOM      5  C   UNL     1      -0.026  -2.188   7.782  0.00  0.00    +0.000 A 
ATOM      6  C   UNL     1       0.885  -1.471   7.109  0.00  0.00    +0.000 A 
ATOM      7  C   UNL     1       0.815  -0.121   7.011  0.00  0.00    +0.000 A 
ATOM      8  C   UNL     1      -0.253   0.491   7.599  0.00  0.00    +0.000 A 
ATOM      9  C   UNL     1      -1.182  -0.169   8.260  0.00  0.00    +0.000 A 
ATOM     10  C   UNL     1      -1.055  -1.510   8.375  0.00  0.00    +0.000 A 
BRANCH   8  11
ATOM     11  O   UNL     1      -0.380   1.795   7.552  0.00  0.00    +0.000 OA
ATOM     12  C   UNL     1       0.454   2.407   6.628  0.00  0.00    +0.000 C 
ENDBRANCH   8  11
ENDBRANCH   4   5
ENDBRANCH   1   3
BRANCH   1  13
ATOM     13  O   UNL     1      -0.339  -6.376   9.191  0.00  0.00    +0.000 OA
BRANCH  13  14
ATOM     14  C   UNL     1      -0.665  -7.196   8.289  0.00  0.00    +0.000 C 
BRANCH  14  15
ATOM     15  C   UNL     1      -0.677  -8.602   8.785  0.00  0.00    +0.000 C 
ATOM     16  C   UNL     1       0.451  -9.352   8.385  0.00  0.00    +0.000 C 
ENDBRANCH  14  15
BRANCH  14  17
ATOM     17  C   UNL     1      -1.704  -6.783   7.441  0.00  0.00    +0.000 C 
BRANCH  17  18
ATOM     18  C   UNL     1      -2.997  -6.945   8.000  0.00  0.00    +0.000 C 
BRANCH  18  20
ATOM     19  C   UNL     1      -3.401  -4.629   8.604  0.00  0.00    +0.000 C 
ATOM     20  C   UNL     1      -3.671  -5.726   7.599  0.00  0.00    +0.000 C 
ENDBRANCH  18  20
ENDBRANCH  17  18
ENDBRANCH  14  17
ENDBRANCH  13  14
ENDBRANCH   1  13
TORSDOF 9
ENDMDL
MODEL 6
REMARK VINA RESULT:      -3.1      6.157      8.248
REMARK  Name = bg33_1_ligand
REMARK  12 active torsions:
REMARK  status: ('A' for Active; 'I' for Inactive)
REMARK    1  A    between atoms: C_1  and  C_2
REMARK    2  A    between atoms: C_2  and  C_3
REMARK    3  A    between atoms: C_3  and  C_4
REMARK    4  A    between atoms: C_4  and  C_5
REMARK    5  A    between atoms: C_5  and  C_6
REMARK    6  A    between atoms: C_5  and  O_8
REMARK    7  A    between atoms: C_6  and  C_7
REMARK    8  A    between atoms: O_8  and  C_9
REMARK    9  A    between atoms: C_9  and  C_11
REMARK   10  A    between atoms: C_12  and  C_13
REMARK   11  A    between atoms: C_16  and  O_17
REMARK   12  A    between atoms: O_17  and  C_18
REMARK                            x       y       z     vdW  Elec       q    Type
REMARK                         _______ _______ _______ _____ _____    ______ ____
ROOT
ATOM      1  C   UNL     1      -5.568  -3.759   3.014  0.00  0.00    +0.000 C 
ATOM      2  O   UNL     1      -6.732  -3.899   2.745  0.00  0.00    +0.000 OA
ENDROOT
BRANCH   1   3
ATOM      3  C   UNL     1      -4.664  -4.834   2.908  0.00  0.00    +0.000 C 
ATOM      4  C   UNL     1      -4.907  -5.873   3.573  0.00  0.00    +0.000 C 
BRANCH   4   5
ATOM      5  C   UNL     1      -4.045  -6.942   3.693  0.00  0.00    +0.000 A 
ATOM      6  C   UNL     1      -3.057  -6.946   4.600  0.00  0.00    +0.000 A 
ATOM      7  C   UNL     1      -2.199  -7.988   4.730  0.00  0.00    +0.000 A 
ATOM      8  C   UNL     1      -2.401  -9.066   3.919  0.00  0.00    +0.000 A 
ATOM      9  C   UNL     1      -3.364  -9.116   3.021  0.00  0.00    +0.000 A 
ATOM     10  C   UNL     1      -4.173  -8.041   2.889  0.00  0.00    +0.000 A 
BRANCH   8  11
ATOM     11  O   UNL     1      -1.604 -10.104   3.983  0.00  0.00    +0.000 OA
ATOM     12  C   UNL     1      -0.537 -10.048   3.099  0.00  0.00    +0.000 C 
ENDBRANCH   8  11
ENDBRANCH   4   5
ENDBRANCH   1   3
BRANCH   1  13
ATOM     13  O   UNL     1      -5.129  -2.610   3.400  0.00  0.00    +0.000 OA
BRANCH  13  14
ATOM     14  C   UNL     1      -5.917  -2.039   4.204  0.00  0.00    +0.000 C 
BRANCH  14  15
ATOM     15  C   UNL     1      -5.707  -2.487   5.610  0.00  0.00    +0.000 C 
ATOM     16  C   UNL     1      -5.359  -1.439   6.491  0.00  0.00    +0.000 C 
ENDBRANCH  14  15
BRANCH  14  17
ATOM     17  C   UNL     1      -6.138  -0.673   3.968  0.00  0.00    +0.000 C 
BRANCH  17  18
ATOM     18  C   UNL     1      -5.309  -0.126   2.956  0.00  0.00    +0.000 C 
BRANCH  18  20
ATOM     19  C   UNL     1      -4.576   1.876   4.117  0.00  0.00    +0.000 C 
ATOM     20  C   UNL     1      -5.532   1.299   3.098  0.00  0.00    +0.000 C 
ENDBRANCH  18  20
ENDBRANCH  17  18
ENDBRANCH  14  17
ENDBRANCH  13  14
ENDBRANCH   1  13
TORSDOF 9
ENDMDL
MODEL 7
REMARK VINA RESULT:      -3.0     11.024     12.720
REMARK  Name = bg33_1_ligand
REMARK  12 active torsions:
REMARK  status: ('A' for Active; 'I' for Inactive)
REMARK    1  A    between atoms: C_1  and  C_2
REMARK    2  A    between atoms: C_2  and  C_3
REMARK    3  A    between atoms: C_3  and  C_4
REMARK    4  A    between atoms: C_4  and  C_5
REMARK    5  A    between atoms: C_5  and  C_6
REMARK    6  A    between atoms: C_5  and  O_8
REMARK    7  A    between atoms: C_6  and  C_7
REMARK    8  A    between atoms: O_8  and  C_9
REMARK    9  A    between atoms: C_9  and  C_11
REMARK   10  A    between atoms: C_12  and  C_13
REMARK   11  A    between atoms: C_16  and  O_17
REMARK   12  A    between atoms: O_17  and  C_18
REMARK                            x       y       z     vdW  Elec       q    Type
REMARK                         _______ _______ _______ _____ _____    ______ ____
ROOT
ATOM      1  C   UNL     1      -3.335  -5.824  -3.024  0.00  0.00    +0.000 C 
ATOM      2  O   UNL     1      -4.075  -6.627  -3.529  0.00  0.00    +0.000 OA
ENDROOT
BRANCH   1   3
ATOM      3  C   UNL     1      -2.219  -6.238  -2.272  0.00  0.00    +0.000 C 
ATOM      4  C   UNL     1      -1.200  -6.628  -2.897  0.00  0.00    +0.000 C 
BRANCH   4   5
ATOM      5  C   UNL     1      -0.096  -7.204  -2.306  0.00  0.00    +0.000 A 
ATOM      6  C   UNL     1       1.091  -6.580  -2.283  0.00  0.00    +0.000 A 
ATOM      7  C   UNL     1       2.188  -7.132  -1.707  0.00  0.00    +0.000 A 
ATOM      8  C   UNL     1       2.031  -8.349  -1.110  0.00  0.00    +0.000 A 
ATOM      9  C   UNL     1       0.884  -8.997  -1.094  0.00  0.00    +0.000 A 
ATOM     10  C   UNL     1      -0.177  -8.435  -1.717  0.00  0.00    +0.000 A 
BRANCH   8  11
ATOM     11  O   UNL     1       3.051  -8.946  -0.543  0.00  0.00    +0.000 OA
ATOM     12  C   UNL     1       4.281  -8.561  -1.053  0.00  0.00    +0.000 C 
ENDBRANCH   8  11
ENDBRANCH   4   5
ENDBRANCH   1   3
BRANCH   1  13
ATOM     13  O   UNL     1      -3.555  -4.562  -3.174  0.00  0.00    +0.000 OA
BRANCH  13  14
ATOM     14  C   UNL     1      -3.981  -4.281  -4.327  0.00  0.00    +0.000 C 
BRANCH  14  15
ATOM     15  C   UNL     1      -5.175  -3.389  -4.283  0.00  0.00    +0.000 C 
ATOM     16  C   UNL     1      -6.390  -4.080  -4.084  0.00  0.00    +0.000 C 
ENDBRANCH  14  15
BRANCH  14  17
ATOM     17  C   UNL     1      -2.996  -4.024  -5.292  0.00  0.00    +0.000 C 
BRANCH  17  18
ATOM     18  C   UNL     1      -3.206  -4.701  -6.520  0.00  0.00    +0.000 C 
BRANCH  18  20
ATOM     19  C   UNL     1      -0.817  -4.945  -6.165  0.00  0.00    +0.000 C 
ATOM     20  C   UNL     1      -2.102  -5.639  -6.559  0.00  0.00    +0.000 C 
ENDBRANCH  18  20
ENDBRANCH  17  18
ENDBRANCH  14  17
ENDBRANCH  13  14
ENDBRANCH   1  13
TORSDOF 9
ENDMDL
MODEL 8
REMARK VINA RESULT:      -3.0      2.403      8.146
REMARK  Name = bg33_1_ligand
REMARK  12 active torsions:
REMARK  status: ('A' for Active; 'I' for Inactive)
REMARK    1  A    between atoms: C_1  and  C_2
REMARK    2  A    between atoms: C_2  and  C_3
REMARK    3  A    between atoms: C_3  and  C_4
REMARK    4  A    between atoms: C_4  and  C_5
REMARK    5  A    between atoms: C_5  and  C_6
REMARK    6  A    between atoms: C_5  and  O_8
REMARK    7  A    between atoms: C_6  and  C_7
REMARK    8  A    between atoms: O_8  and  C_9
REMARK    9  A    between atoms: C_9  and  C_11
REMARK   10  A    between atoms: C_12  and  C_13
REMARK   11  A    between atoms: C_16  and  O_17
REMARK   12  A    between atoms: O_17  and  C_18
REMARK                            x       y       z     vdW  Elec       q    Type
REMARK                         _______ _______ _______ _____ _____    ______ ____
ROOT
ATOM      1  C   UNL     1      -0.419  -6.112   8.315  0.00  0.00    +0.000 C 
ATOM      2  O   UNL     1      -1.107  -6.727   7.544  0.00  0.00    +0.000 OA
ENDROOT
BRANCH   1   3
ATOM      3  C   UNL     1       0.002  -4.800   8.025  0.00  0.00    +0.000 C 
ATOM      4  C   UNL     1      -0.655  -3.848   8.519  0.00  0.00    +0.000 C 
BRANCH   4   5
ATOM      5  C   UNL     1      -0.460  -2.521   8.205  0.00  0.00    +0.000 A 
ATOM      6  C   UNL     1      -1.309  -1.570   8.623  0.00  0.00    +0.000 A 
ATOM      7  C   UNL     1      -1.133  -0.260   8.322  0.00  0.00    +0.000 A 
ATOM      8  C   UNL     1      -0.025   0.069   7.598  0.00  0.00    +0.000 A 
ATOM      9  C   UNL     1       0.845  -0.825   7.174  0.00  0.00    +0.000 A 
ATOM     10  C   UNL     1       0.614  -2.127   7.455  0.00  0.00    +0.000 A 
BRANCH   8  11
ATOM     11  O   UNL     1       0.203   1.316   7.261  0.00  0.00    +0.000 OA
ATOM     12  C   UNL     1      -0.022   2.222   8.286  0.00  0.00    +0.000 C 
ENDBRANCH   8  11
ENDBRANCH   4   5
ENDBRANCH   1   3
BRANCH   1  13
ATOM     13  O   UNL     1      -0.062  -6.651   9.431  0.00  0.00    +0.000 OA
BRANCH  13  14
ATOM     14  C   UNL     1       1.106  -7.126   9.384  0.00  0.00    +0.000 C 
BRANCH  14  15
ATOM     15  C   UNL     1       1.941  -6.679  10.535  0.00  0.00    +0.000 C 
ATOM     16  C   UNL     1       2.921  -5.724  10.186  0.00  0.00    +0.000 C 
ENDBRANCH  14  15
BRANCH  14  17
ATOM     17  C   UNL     1       1.199  -8.465   8.976  0.00  0.00    +0.000 C 
BRANCH  17  18
ATOM     18  C   UNL     1       0.866  -9.397   9.992  0.00  0.00    +0.000 C 
BRANCH  18  20
ATOM     19  C   UNL     1       1.236 -11.508   8.853  0.00  0.00    +0.000 C 
ATOM     20  C   UNL     1       1.823 -10.462   9.773  0.00  0.00    +0.000 C 
ENDBRANCH  18  20
ENDBRANCH  17  18
ENDBRANCH  14  17
ENDBRANCH  13  14
ENDBRANCH   1  13
TORSDOF 9
ENDMDL
MODEL 9
REMARK VINA RESULT:      -3.0     10.380     13.195
REMARK  Name = bg33_1_ligand
REMARK  12 active torsions:
REMARK  status: ('A' for Active; 'I' for Inactive)
REMARK    1  A    between atoms: C_1  and  C_2
REMARK    2  A    between atoms: C_2  and  C_3
REMARK    3  A    between atoms: C_3  and  C_4
REMARK    4  A    between atoms: C_4  and  C_5
REMARK    5  A    between atoms: C_5  and  C_6
REMARK    6  A    between atoms: C_5  and  O_8
REMARK    7  A    between atoms: C_6  and  C_7
REMARK    8  A    between atoms: O_8  and  C_9
REMARK    9  A    between atoms: C_9  and  C_11
REMARK   10  A    between atoms: C_12  and  C_13
REMARK   11  A    between atoms: C_16  and  O_17
REMARK   12  A    between atoms: O_17  and  C_18
REMARK                            x       y       z     vdW  Elec       q    Type
REMARK                         _______ _______ _______ _____ _____    ______ ____
ROOT
ATOM      1  C   UNL     1       6.318  -1.870   2.104  0.00  0.00    +0.000 C 
ATOM      2  O   UNL     1       7.284  -1.158   2.180  0.00  0.00    +0.000 OA
ENDROOT
BRANCH   1   3
ATOM      3  C   UNL     1       5.300  -1.614   1.165  0.00  0.00    +0.000 C 
ATOM      4  C   UNL     1       5.620  -1.560  -0.050  0.00  0.00    +0.000 C 
BRANCH   4   5
ATOM      5  C   UNL     1       4.773  -1.170  -1.063  0.00  0.00    +0.000 A 
ATOM      6  C   UNL     1       3.959  -2.044  -1.673  0.00  0.00    +0.000 A 
ATOM      7  C   UNL     1       3.120  -1.677  -2.673  0.00  0.00    +0.000 A 
ATOM      8  C   UNL     1       3.103  -0.358  -3.018  0.00  0.00    +0.000 A 
ATOM      9  C   UNL     1       3.872   0.543  -2.441  0.00  0.00    +0.000 A 
ATOM     10  C   UNL     1       4.729   0.133  -1.479  0.00  0.00    +0.000 A 
BRANCH   8  11
ATOM     11  O   UNL     1       2.324   0.066  -3.983  0.00  0.00    +0.000 OA
ATOM     12  C   UNL     1       1.977  -0.917  -4.897  0.00  0.00    +0.000 C 
ENDBRANCH   8  11
ENDBRANCH   4   5
ENDBRANCH   1   3
BRANCH   1  13
ATOM     13  O   UNL     1       6.205  -2.890   2.885  0.00  0.00    +0.000 OA
BRANCH  13  14
ATOM     14  C   UNL     1       7.293  -3.513   3.024  0.00  0.00    +0.000 C 
BRANCH  14  15
ATOM     15  C   UNL     1       7.580  -3.833   4.451  0.00  0.00    +0.000 C 
ATOM     16  C   UNL     1       7.933  -2.704   5.223  0.00  0.00    +0.000 C 
ENDBRANCH  14  15
BRANCH  14  17
ATOM     17  C   UNL     1       7.555  -4.496   2.057  0.00  0.00    +0.000 C 
BRANCH  17  18
ATOM     18  C   UNL     1       8.900  -4.511   1.607  0.00  0.00    +0.000 C 
BRANCH  18  20
ATOM     19  C   UNL     1       7.750  -4.580  -0.530  0.00  0.00    +0.000 C 
ATOM     20  C   UNL     1       8.805  -3.887   0.302  0.00  0.00    +0.000 C 
ENDBRANCH  18  20
ENDBRANCH  17  18
ENDBRANCH  14  17
ENDBRANCH  13  14
ENDBRANCH   1  13
TORSDOF 9
ENDMDL
