REMARK  Name = shuffle_control_ligand
REMARK  12 active torsions:
REMARK  status: ('A' for Active; 'I' for Inactive)
REMARK    1  A    between atoms: C_1  and  C_2
REMARK    2  A    between atoms: C_2  and  C_3
REMARK    3  A    between atoms: C_3  and  C_4
REMARK    4  A    between atoms: C_4  and  C_5
REMARK    5  A    between atoms: C_5  and  C_6
REMARK    6  A    between atoms: C_5  and  O_8
REMARK    7  A    between atoms: C_6  and  C_7
REMARK    8  A    between atoms: O_8  and  C_9
REMARK    9  A    between atoms: C_9  and  C_11
REMARK   10  A    between atoms: C_12  and  C_13
REMARK   11  A    between atoms: C_16  and  O_17
REMARK   12  A    between atoms: O_17  and  C_18
REMARK                            x       y       z     vdW  Elec       q    Type
REMARK                         _______ _______ _______ _____ _____    ______ ____
ROOT
ATOM      1  C   UNL     1      -7.067  -5.968   0.855  0.00  0.00    +0.000 C 
ATOM      2  O   UNL     1      -7.032  -5.199  -0.067  0.00  0.00    +0.000 OA
ENDROOT
BRANCH   1   3
ATOM      3  C   UNL     1      -7.286  -5.573   2.267  0.00  0.00    +0.000 C 
ATOM      4  C   UNL     1      -7.432  -4.288   2.603  0.00  0.00    +0.000 C 
BRANCH   4   5
ATOM      5  C   UNL     1      -7.626  -3.812   3.993  0.00  0.00    +0.000 A 
ATOM      6  C   UNL     1      -7.885  -4.666   5.034  0.00  0.00    +0.000 A 
ATOM      7  C   UNL     1      -8.059  -4.176   6.324  0.00  0.00    +0.000 A 
ATOM      8  C   UNL     1      -7.975  -2.832   6.575  0.00  0.00    +0.000 A 
ATOM      9  C   UNL     1      -7.718  -1.972   5.536  0.00  0.00    +0.000 A 
ATOM     10  C   UNL     1      -7.546  -2.459   4.245  0.00  0.00    +0.000 A 
BRANCH   8  11
ATOM     11  O   UNL     1      -8.129  -2.291   7.818  0.00  0.00    +0.000 OA
ATOM     12  C   UNL     1      -8.410  -3.127   8.924  0.00  0.00    +0.000 C 
ENDBRANCH   8  11
ENDBRANCH   4   5
ENDBRANCH   1   3
BRANCH   1  13
ATOM     13  O   UNL     1      -6.905  -7.284   0.680  0.00  0.00    +0.000 OA
BRANCH  13  14
ATOM     14  C   UNL     1      -6.719  -7.814  -0.616  0.00  0.00    +0.000 C 
BRANCH  14  15
ATOM     15  C   UNL     1      -5.444  -8.641  -0.661  0.00  0.00    +0.000 C 
ATOM     16  C   UNL     1      -4.299  -8.078   0.109  0.00  0.00    +0.000 C 
ENDBRANCH  14  15
BRANCH  14  17
ATOM     17  C   UNL     1      -7.896  -8.705  -0.944  0.00  0.00    +0.000 C 
BRANCH  17  18
ATOM     18  C   UNL     1      -9.224  -8.088  -0.646  0.00  0.00    +0.000 C 
BRANCH  18  20
ATOM     19  C   UNL     1     -11.701  -8.370  -0.721  0.00  0.00    +0.000 C 
ATOM     20  C   UNL     1     -10.369  -8.967  -1.077  0.00  0.00    +0.000 C 
ENDBRANCH  18  20
ENDBRANCH  17  18
ENDBRANCH  14  17
ENDBRANCH  13  14
ENDBRANCH   1  13
TORSDOF 9
