MODEL 1
REMARK VINA RESULT:      -4.6      0.000      0.000
REMARK  Name = shuffle_control_ligand
REMARK  12 active torsions:
REMARK  status: ('A' for Active; 'I' for Inactive)
REMARK    1  A    between atoms: C_1  and  C_2
REMARK    2  A    between atoms: C_2  and  C_3
REMARK    3  A    between atoms: C_3  and  C_4
REMARK    4  A    between atoms: C_4  and  C_5
REMARK    5  A    between atoms: C_5  and  C_6
REMARK    6  A    between atoms: C_5  and  O_8
REMARK    7  A    between atoms: C_6  and  C_7
REMARK    8  A    between atoms: O_8  and  C_9
REMARK    9  A    between atoms: C_9  and  C_11
REMARK   10  A    between atoms: C_12  and  C_13
REMARK   11  A    between atoms: C_16  and  O_17
REMARK   12  A    between atoms: O_17  and  C_18
REMARK                            x       y       z     vdW  Elec       q    Type
REMARK                         _______ _______ _______ _____ _____    ______ ____
ROOT
ATOM      1  C   UNL     1      -2.202  -0.104   7.741  0.00  0.00    +0.000 C 
ATOM      2  O   UNL     1      -1.858  -0.618   8.771  0.00  0.00    +0.000 OA
ENDROOT
BRANCH   1   3
ATOM      3  C   UNL     1      -3.589   0.325   7.441  0.00  0.00    +0.000 C 
ATOM      4  C   UNL     1      -4.204   1.231   8.206  0.00  0.00    +0.000 C 
BRANCH   4   5
ATOM      5  C   UNL     1      -5.597   1.690   7.989  0.00  0.00    +0.000 A 
ATOM      6  C   UNL     1      -6.557   0.888   7.428  0.00  0.00    +0.000 A 
ATOM      7  C   UNL     1      -7.853   1.359   7.244  0.00  0.00    +0.000 A 
ATOM      8  C   UNL     1      -8.190   2.632   7.619  0.00  0.00    +0.000 A 
ATOM      9  C   UNL     1      -7.232   3.441   8.179  0.00  0.00    +0.000 A 
ATOM     10  C   UNL     1      -5.935   2.973   8.362  0.00  0.00    +0.000 A 
BRANCH   8  11
ATOM     11  O   UNL     1      -9.444   3.150   7.471  0.00  0.00    +0.000 OA
ATOM     12  C   UNL     1      -9.624   4.549   7.362  0.00  0.00    +0.000 C 
ENDBRANCH   8  11
ENDBRANCH   4   5
ENDBRANCH   1   3
BRANCH   1  13
ATOM     13  O   UNL     1      -1.337   0.129   6.748  0.00  0.00    +0.000 OA
BRANCH  13  14
ATOM     14  C   UNL     1      -1.715  -0.091   5.405  0.00  0.00    +0.000 C 
BRANCH  14  15
ATOM     15  C   UNL     1      -1.180   1.026   4.524  0.00  0.00    +0.000 C 
ATOM     16  C   UNL     1      -0.366   2.054   5.233  0.00  0.00    +0.000 C 
ENDBRANCH  14  15
BRANCH  14  17
ATOM     17  C   UNL     1      -1.123  -1.406   4.949  0.00  0.00    +0.000 C 
BRANCH  17  18
ATOM     18  C   UNL     1       0.081  -1.257   4.076  0.00  0.00    +0.000 C 
BRANCH  18  20
ATOM     19  C   UNL     1       2.445  -0.540   4.423  0.00  0.00    +0.000 C 
ATOM     20  C   UNL     1       1.363  -1.500   4.829  0.00  0.00    +0.000 C 
ENDBRANCH  18  20
ENDBRANCH  17  18
ENDBRANCH  14  17
ENDBRANCH  13  14
ENDBRANCH   1  13
TORSDOF 9
ENDMDL
MODEL 2
REMARK VINA RESULT:      -4.4      5.025      6.629
REMARK  Name = shuffle_control_ligand
REMARK  12 active torsions:
REMARK  status: ('A' for Active; 'I' for Inactive)
REMARK    1  A    between atoms: C_1  and  C_2
REMARK    2  A    between atoms: C_2  and  C_3
REMARK    3  A    between atoms: C_3  and  C_4
REMARK    4  A    between atoms: C_4  and  C_5
REMARK    5  A    between atoms: C_5  and  C_6
REMARK    6  A    between atoms: C_5  and  O_8
REMARK    7  A    between atoms: C_6  and  C_7
REMARK    8  A    between atoms: O_8  and  C_9
REMARK    9  A    between atoms: C_9  and  C_11
REMARK   10  A    between atoms: C_12  and  C_13
REMARK   11  A    between atoms: C_16  and  O_17
REMARK   12  A    between atoms: O_17  and  C_18
REMARK                            x       y       z     vdW  Elec       q    Type
REMARK                         _______ _______ _______ _____ _____    ______ ____
ROOT
ATOM      1  C   UNL     1      -0.773   2.123   4.828  0.00  0.00    +0.000 C 
ATOM      2  O   UNL     1      -1.194   2.662   3.841  0.00  0.00    +0.000 OA
ENDROOT
BRANCH   1   3
ATOM      3  C   UNL     1      -1.135   0.749   5.251  0.00  0.00    +0.000 C 
ATOM      4  C   UNL     1      -0.698  -0.314   4.569  0.00  0.00    +0.000 C 
BRANCH   4   5
ATOM      5  C   UNL     1      -1.039  -1.715   4.911  0.00  0.00    +0.000 A 
ATOM      6  C   UNL     1      -0.398  -2.788   4.345  0.00  0.00    +0.000 A 
ATOM      7  C   UNL     1      -0.750  -4.087   4.697  0.00  0.00    +0.000 A 
ATOM      8  C   UNL     1      -1.742  -4.316   5.613  0.00  0.00    +0.000 A 
ATOM      9  C   UNL     1      -2.388  -3.246   6.181  0.00  0.00    +0.000 A 
ATOM     10  C   UNL     1      -2.041  -1.946   5.829  0.00  0.00    +0.000 A 
BRANCH   8  11
ATOM     11  O   UNL     1      -2.127  -5.565   6.004  0.00  0.00    +0.000 OA
ATOM     12  C   UNL     1      -3.452  -5.792   6.445  0.00  0.00    +0.000 C 
ENDBRANCH   8  11
ENDBRANCH   4   5
ENDBRANCH   1   3
BRANCH   1  13
ATOM     13  O   UNL     1       0.081   2.735   5.655  0.00  0.00    +0.000 OA
BRANCH  13  14
ATOM     14  C   UNL     1       1.423   2.945   5.267  0.00  0.00    +0.000 C 
BRANCH  14  15
ATOM     15  C   UNL     1       1.927   4.264   5.831  0.00  0.00    +0.000 C 
ATOM     16  C   UNL     1       0.893   5.098   6.505  0.00  0.00    +0.000 C 
ENDBRANCH  14  15
BRANCH  14  17
ATOM     17  C   UNL     1       2.265   1.818   5.822  0.00  0.00    +0.000 C 
BRANCH  17  18
ATOM     18  C   UNL     1       3.326   1.337   4.886  0.00  0.00    +0.000 C 
BRANCH  18  20
ATOM     19  C   UNL     1       2.869  -1.091   5.231  0.00  0.00    +0.000 C 
ATOM     20  C   UNL     1       2.958   0.030   4.233  0.00  0.00    +0.000 C 
ENDBRANCH  18  20
ENDBRANCH  17  18
ENDBRANCH  14  17
ENDBRANCH  13  14
ENDBRANCH   1  13
TORSDOF 9
ENDMDL
MODEL 3
REMARK VINA RESULT:      -4.4      2.534      3.733
REMARK  Name = shuffle_control_ligand
REMARK  12 active torsions:
REMARK  status: ('A' for Active; 'I' for Inactive)
REMARK    1  A    between atoms: C_1  and  C_2
REMARK    2  A    between atoms: C_2  and  C_3
REMARK    3  A    between atoms: C_3  and  C_4
REMARK    4  A    between atoms: C_4  and  C_5
REMARK    5  A    between atoms: C_5  and  C_6
REMARK    6  A    between atoms: C_5  and  O_8
REMARK    7  A    between atoms: C_6  and  C_7
REMARK    8  A    between atoms: O_8  and  C_9
REMARK    9  A    between atoms: C_9  and  C_11
REMARK   10  A    between atoms: C_12  and  C_13
REMARK   11  A    between atoms: C_16  and  O_17
REMARK   12  A    between atoms: O_17  and  C_18
REMARK                            x       y       z     vdW  Elec       q    Type
REMARK                         _______ _______ _______ _____ _____    ______ ____
ROOT
ATOM      1  C   UNL     1      -0.922   1.017   5.293  0.00  0.00    +0.000 C 
ATOM      2  O   UNL     1      -0.709   2.108   4.839  0.00  0.00    +0.000 OA
ENDROOT
BRANCH   1   3
ATOM      3  C   UNL     1      -2.266   0.511   5.662  0.00  0.00    +0.000 C 
ATOM      4  C   UNL     1      -2.547   0.174   6.923  0.00  0.00    +0.000 C 
BRANCH   4   5
ATOM      5  C   UNL     1      -3.855  -0.365   7.365  0.00  0.00    +0.000 A 
ATOM      6  C   UNL     1      -4.046  -1.692   7.651  0.00  0.00    +0.000 A 
ATOM      7  C   UNL     1      -5.291  -2.155   8.064  0.00  0.00    +0.000 A 
ATOM      8  C   UNL     1      -6.347  -1.291   8.191  0.00  0.00    +0.000 A 
ATOM      9  C   UNL     1      -6.162   0.038   7.903  0.00  0.00    +0.000 A 
ATOM     10  C   UNL     1      -4.919   0.503   7.488  0.00  0.00    +0.000 A 
BRANCH   8  11
ATOM     11  O   UNL     1      -7.589  -1.682   8.597  0.00  0.00    +0.000 OA
ATOM     12  C   UNL     1      -8.294  -0.916   9.555  0.00  0.00    +0.000 C 
ENDBRANCH   8  11
ENDBRANCH   4   5
ENDBRANCH   1   3
BRANCH   1  13
ATOM     13  O   UNL     1       0.065   0.141   5.512  0.00  0.00    +0.000 OA
BRANCH  13  14
ATOM     14  C   UNL     1       0.751  -0.447   4.426  0.00  0.00    +0.000 C 
BRANCH  14  15
ATOM     15  C   UNL     1       2.120  -0.932   4.878  0.00  0.00    +0.000 C 
ATOM     16  C   UNL     1       3.268  -0.108   4.408  0.00  0.00    +0.000 C 
ENDBRANCH  14  15
BRANCH  14  17
ATOM     17  C   UNL     1      -0.053  -1.630   3.934  0.00  0.00    +0.000 C 
BRANCH  17  18
ATOM     18  C   UNL     1      -0.035  -2.802   4.860  0.00  0.00    +0.000 C 
BRANCH  18  20
ATOM     19  C   UNL     1      -1.341  -3.892   6.683  0.00  0.00    +0.000 C 
ATOM     20  C   UNL     1      -1.406  -3.128   5.391  0.00  0.00    +0.000 C 
ENDBRANCH  18  20
ENDBRANCH  17  18
ENDBRANCH  14  17
ENDBRANCH  13  14
ENDBRANCH   1  13
TORSDOF 9
ENDMDL
MODEL 4
REMARK VINA RESULT:      -4.4      1.979      7.775
REMARK  Name = shuffle_control_ligand
REMARK  12 active torsions:
REMARK  status: ('A' for Active; 'I' for Inactive)
REMARK    1  A    between atoms: C_1  and  C_2
REMARK    2  A    between atoms: C_2  and  C_3
REMARK    3  A    between atoms: C_3  and  C_4
REMARK    4  A    between atoms: C_4  and  C_5
REMARK    5  A    between atoms: C_5  and  C_6
REMARK    6  A    between atoms: C_5  and  O_8
REMARK    7  A    between atoms: C_6  and  C_7
REMARK    8  A    between atoms: O_8  and  C_9
REMARK    9  A    between atoms: C_9  and  C_11
REMARK   10  A    between atoms: C_12  and  C_13
REMARK   11  A    between atoms: C_16  and  O_17
REMARK   12  A    between atoms: O_17  and  C_18
REMARK                            x       y       z     vdW  Elec       q    Type
REMARK                         _______ _______ _______ _____ _____    ______ ____
ROOT
ATOM      1  C   UNL     1      -5.067   1.622   8.632  0.00  0.00    +0.000 C 
ATOM      2  O   UNL     1      -5.170   1.329   9.792  0.00  0.00    +0.000 OA
ENDROOT
BRANCH   1   3
ATOM      3  C   UNL     1      -3.891   1.301   7.789  0.00  0.00    +0.000 C 
ATOM      4  C   UNL     1      -3.850   0.175   7.072  0.00  0.00    +0.000 C 
BRANCH   4   5
ATOM      5  C   UNL     1      -2.700  -0.229   6.228  0.00  0.00    +0.000 A 
ATOM      6  C   UNL     1      -2.379  -1.543   6.002  0.00  0.00    +0.000 A 
ATOM      7  C   UNL     1      -1.292  -1.877   5.201  0.00  0.00    +0.000 A 
ATOM      8  C   UNL     1      -0.524  -0.899   4.627  0.00  0.00    +0.000 A 
ATOM      9  C   UNL     1      -0.840   0.419   4.852  0.00  0.00    +0.000 A 
ATOM     10  C   UNL     1      -1.925   0.755   5.653  0.00  0.00    +0.000 A 
BRANCH   8  11
ATOM     11  O   UNL     1       0.550  -1.162   3.828  0.00  0.00    +0.000 OA
ATOM     12  C   UNL     1       1.854  -0.828   4.262  0.00  0.00    +0.000 C 
ENDBRANCH   8  11
ENDBRANCH   4   5
ENDBRANCH   1   3
BRANCH   1  13
ATOM     13  O   UNL     1      -6.033   2.282   7.985  0.00  0.00    +0.000 OA
BRANCH  13  14
ATOM     14  C   UNL     1      -7.380   1.873   8.103  0.00  0.00    +0.000 C 
BRANCH  14  15
ATOM     15  C   UNL     1      -8.305   3.000   7.672  0.00  0.00    +0.000 C 
ATOM     16  C   UNL     1      -7.976   4.338   8.239  0.00  0.00    +0.000 C 
ENDBRANCH  14  15
BRANCH  14  17
ATOM     17  C   UNL     1      -7.601   0.682   7.198  0.00  0.00    +0.000 C 
BRANCH  17  18
ATOM     18  C   UNL     1      -8.851   0.763   6.384  0.00  0.00    +0.000 C 
BRANCH  18  20
ATOM     19  C   UNL     1      -9.472  -0.730   4.484  0.00  0.00    +0.000 C 
ATOM     20  C   UNL     1      -9.354  -0.598   5.976  0.00  0.00    +0.000 C 
ENDBRANCH  18  20
ENDBRANCH  17  18
ENDBRANCH  14  17
ENDBRANCH  13  14
ENDBRANCH   1  13
TORSDOF 9
ENDMDL
MODEL 5
REMARK VINA RESULT:      -4.3      1.238      2.528
REMARK  Name = shuffle_control_ligand
REMARK  12 active torsions:
REMARK  status: ('A' for Active; 'I' for Inactive)
REMARK    1  A    between atoms: C_1  and  C_2
REMARK    2  A    between atoms: C_2  and  C_3
REMARK    3  A    between atoms: C_3  and  C_4
REMARK    4  A    between atoms: C_4  and  C_5
REMARK    5  A    between atoms: C_5  and  C_6
REMARK    6  A    between atoms: C_5  and  O_8
REMARK    7  A    between atoms: C_6  and  C_7
REMARK    8  A    between atoms: O_8  and  C_9
REMARK    9  A    between atoms: C_9  and  C_11
REMARK   10  A    between atoms: C_12  and  C_13
REMARK   11  A    between atoms: C_16  and  O_17
REMARK   12  A    between atoms: O_17  and  C_18
REMARK                            x       y       z     vdW  Elec       q    Type
REMARK                         _______ _______ _______ _____ _____    ______ ____
ROOT
ATOM      1  C   UNL     1      -2.600  -1.340   6.572  0.00  0.00    +0.000 C 
ATOM      2  O   UNL     1      -2.505  -2.238   7.364  0.00  0.00    +0.000 OA
ENDROOT
BRANCH   1   3
ATOM      3  C   UNL     1      -3.436  -0.132   6.772  0.00  0.00    +0.000 C 
ATOM      4  C   UNL     1      -4.544  -0.183   7.517  0.00  0.00    +0.000 C 
BRANCH   4   5
ATOM      5  C   UNL     1      -5.445   0.972   7.740  0.00  0.00    +0.000 A 
ATOM      6  C   UNL     1      -5.009   2.151   8.287  0.00  0.00    +0.000 A 
ATOM      7  C   UNL     1      -5.889   3.211   8.478  0.00  0.00    +0.000 A 
ATOM      8  C   UNL     1      -7.207   3.093   8.123  0.00  0.00    +0.000 A 
ATOM      9  C   UNL     1      -7.650   1.914   7.577  0.00  0.00    +0.000 A 
ATOM     10  C   UNL     1      -6.772   0.853   7.387  0.00  0.00    +0.000 A 
BRANCH   8  11
ATOM     11  O   UNL     1      -8.117   4.098   8.279  0.00  0.00    +0.000 OA
ATOM     12  C   UNL     1      -9.382   4.010   7.651  0.00  0.00    +0.000 C 
ENDBRANCH   8  11
ENDBRANCH   4   5
ENDBRANCH   1   3
BRANCH   1  13
ATOM     13  O   UNL     1      -1.941  -1.356   5.408  0.00  0.00    +0.000 OA
BRANCH  13  14
ATOM     14  C   UNL     1      -0.720  -0.659   5.270  0.00  0.00    +0.000 C 
BRANCH  14  15
ATOM     15  C   UNL     1       0.273  -1.502   4.486  0.00  0.00    +0.000 C 
ATOM     16  C   UNL     1       1.653  -0.944   4.409  0.00  0.00    +0.000 C 
ENDBRANCH  14  15
BRANCH  14  17
ATOM     17  C   UNL     1      -0.982   0.624   4.514  0.00  0.00    +0.000 C 
BRANCH  17  18
ATOM     18  C   UNL     1      -0.576   1.857   5.255  0.00  0.00    +0.000 C 
BRANCH  18  20
ATOM     19  C   UNL     1      -0.876   2.275   7.695  0.00  0.00    +0.000 C 
ATOM     20  C   UNL     1      -0.085   1.549   6.645  0.00  0.00    +0.000 C 
ENDBRANCH  18  20
ENDBRANCH  17  18
ENDBRANCH  14  17
ENDBRANCH  13  14
ENDBRANCH   1  13
TORSDOF 9
ENDMDL
MODEL 6
REMARK VINA RESULT:      -4.3      2.264      7.949
REMARK  Name = shuffle_control_ligand
REMARK  12 active torsions:
REMARK  status: ('A' for Active; 'I' for Inactive)
REMARK    1  A    between atoms: C_1  and  C_2
REMARK    2  A    between atoms: C_2  and  C_3
REMARK    3  A    between atoms: C_3  and  C_4
REMARK    4  A    between atoms: C_4  and  C_5
REMARK    5  A    between atoms: C_5  and  C_6
REMARK    6  A    between atoms: C_5  and  O_8
REMARK    7  A    between atoms: C_6  and  C_7
REMARK    8  A    between atoms: O_8  and  C_9
REMARK    9  A    between atoms: C_9  and  C_11
REMARK   10  A    between atoms: C_12  and  C_13
REMARK   11  A    between atoms: C_16  and  O_17
REMARK   12  A    between atoms: O_17  and  C_18
REMARK                            x       y       z     vdW  Elec       q    Type
REMARK                         _______ _______ _______ _____ _____    ______ ____
ROOT
ATOM      1  C   UNL     1      -5.530  -1.184   8.447  0.00  0.00    +0.000 C 
ATOM      2  O   UNL     1      -5.665  -1.478   9.604  0.00  0.00    +0.000 OA
ENDROOT
BRANCH   1   3
ATOM      3  C   UNL     1      -4.282  -1.383   7.672  0.00  0.00    +0.000 C 
ATOM      4  C   UNL     1      -3.782  -0.402   6.915  0.00  0.00    +0.000 C 
BRANCH   4   5
ATOM      5  C   UNL     1      -2.557  -0.532   6.092  0.00  0.00    +0.000 A 
ATOM      6  C   UNL     1      -1.924   0.550   5.537  0.00  0.00    +0.000 A 
ATOM      7  C   UNL     1      -0.776   0.382   4.772  0.00  0.00    +0.000 A 
ATOM      8  C   UNL     1      -0.259  -0.868   4.558  0.00  0.00    +0.000 A 
ATOM      9  C   UNL     1      -0.890  -1.956   5.109  0.00  0.00    +0.000 A 
ATOM     10  C   UNL     1      -2.040  -1.791   5.873  0.00  0.00    +0.000 A 
BRANCH   8  11
ATOM     11  O   UNL     1       0.868  -1.098   3.823  0.00  0.00    +0.000 OA
ATOM     12  C   UNL     1       2.126  -0.666   4.303  0.00  0.00    +0.000 C 
ENDBRANCH   8  11
ENDBRANCH   4   5
ENDBRANCH   1   3
BRANCH   1  13
ATOM     13  O   UNL     1      -6.524  -0.635   7.740  0.00  0.00    +0.000 OA
BRANCH  13  14
ATOM     14  C   UNL     1      -7.377   0.322   8.333  0.00  0.00    +0.000 C 
BRANCH  14  15
ATOM     15  C   UNL     1      -6.971   1.721   7.898  0.00  0.00    +0.000 C 
ATOM     16  C   UNL     1      -8.103   2.649   7.620  0.00  0.00    +0.000 C 
ENDBRANCH  14  15
BRANCH  14  17
ATOM     17  C   UNL     1      -8.793   0.054   7.871  0.00  0.00    +0.000 C 
BRANCH  17  18
ATOM     18  C   UNL     1      -8.931  -1.165   7.019  0.00  0.00    +0.000 C 
BRANCH  18  20
ATOM     19  C   UNL     1      -9.388   0.298   5.051  0.00  0.00    +0.000 C 
ATOM     20  C   UNL     1      -9.809  -0.923   5.819  0.00  0.00    +0.000 C 
ENDBRANCH  18  20
ENDBRANCH  17  18
ENDBRANCH  14  17
ENDBRANCH  13  14
ENDBRANCH   1  13
TORSDOF 9
ENDMDL
MODEL 7
REMARK VINA RESULT:      -4.3      1.745      2.453
REMARK  Name = shuffle_control_ligand
REMARK  12 active torsions:
REMARK  status: ('A' for Active; 'I' for Inactive)
REMARK    1  A    between atoms: C_1  and  C_2
REMARK    2  A    between atoms: C_2  and  C_3
REMARK    3  A    between atoms: C_3  and  C_4
REMARK    4  A    between atoms: C_4  and  C_5
REMARK    5  A    between atoms: C_5  and  C_6
REMARK    6  A    between atoms: C_5  and  O_8
REMARK    7  A    between atoms: C_6  and  C_7
REMARK    8  A    between atoms: O_8  and  C_9
REMARK    9  A    between atoms: C_9  and  C_11
REMARK   10  A    between atoms: C_12  and  C_13
REMARK   11  A    between atoms: C_16  and  O_17
REMARK   12  A    between atoms: O_17  and  C_18
REMARK                            x       y       z     vdW  Elec       q    Type
REMARK                         _______ _______ _______ _____ _____    ______ ____
ROOT
ATOM      1  C   UNL     1      -2.506   0.924   7.562  0.00  0.00    +0.000 C 
ATOM      2  O   UNL     1      -2.254   1.742   8.405  0.00  0.00    +0.000 OA
ENDROOT
BRANCH   1   3
ATOM      3  C   UNL     1      -3.860   0.378   7.305  0.00  0.00    +0.000 C 
ATOM      4  C   UNL     1      -4.946   0.981   7.796  0.00  0.00    +0.000 C 
BRANCH   4   5
ATOM      5  C   UNL     1      -6.329   0.482   7.607  0.00  0.00    +0.000 A 
ATOM      6  C   UNL     1      -7.342   1.280   7.143  0.00  0.00    +0.000 A 
ATOM      7  C   UNL     1      -8.626   0.769   6.979  0.00  0.00    +0.000 A 
ATOM      8  C   UNL     1      -8.897  -0.539   7.279  0.00  0.00    +0.000 A 
ATOM      9  C   UNL     1      -7.887  -1.343   7.746  0.00  0.00    +0.000 A 
ATOM     10  C   UNL     1      -6.603  -0.834   7.913  0.00  0.00    +0.000 A 
BRANCH   8  11
ATOM     11  O   UNL     1     -10.132  -1.100   7.133  0.00  0.00    +0.000 OA
ATOM     12  C   UNL     1     -10.569  -1.528   5.857  0.00  0.00    +0.000 C 
ENDBRANCH   8  11
ENDBRANCH   4   5
ENDBRANCH   1   3
BRANCH   1  13
ATOM     13  O   UNL     1      -1.559   0.423   6.762  0.00  0.00    +0.000 OA
BRANCH  13  14
ATOM     14  C   UNL     1      -1.844   0.143   5.407  0.00  0.00    +0.000 C 
BRANCH  14  15
ATOM     15  C   UNL     1      -1.213   1.200   4.515  0.00  0.00    +0.000 C 
ATOM     16  C   UNL     1      -0.268   2.125   5.202  0.00  0.00    +0.000 C 
ENDBRANCH  14  15
BRANCH  14  17
ATOM     17  C   UNL     1      -1.257  -1.208   5.062  0.00  0.00    +0.000 C 
BRANCH  17  18
ATOM     18  C   UNL     1      -0.079  -1.139   4.145  0.00  0.00    +0.000 C 
BRANCH  18  20
ATOM     19  C   UNL     1       2.349  -0.625   4.396  0.00  0.00    +0.000 C 
ATOM     20  C   UNL     1       1.207  -1.492   4.845  0.00  0.00    +0.000 C 
ENDBRANCH  18  20
ENDBRANCH  17  18
ENDBRANCH  14  17
ENDBRANCH  13  14
ENDBRANCH   1  13
TORSDOF 9
ENDMDL
MODEL 8
REMARK VINA RESULT:      -4.2      3.322      4.684
REMARK  Name = shuffle_control_ligand
REMARK  12 active torsions:
REMARK  status: ('A' for Active; 'I' for Inactive)
REMARK    1  A    between atoms: C_1  and  C_2
REMARK    2  A    between atoms: C_2  and  C_3
REMARK    3  A    between atoms: C_3  and  C_4
REMARK    4  A    between atoms: C_4  and  C_5
REMARK    5  A    between atoms: C_5  and  C_6
REMARK    6  A    between atoms: C_5  and  O_8
REMARK    7  A    between atoms: C_6  and  C_7
REMARK    8  A    between atoms: O_8  and  C_9
REMARK    9  A    between atoms: C_9  and  C_11
REMARK   10  A    between atoms: C_12  and  C_13
REMARK   11  A    between atoms: C_16  and  O_17
REMARK   12  A    between atoms: O_17  and  C_18
REMARK                            x       y       z     vdW  Elec       q    Type
REMARK                         _______ _______ _______ _____ _____    ______ ____
ROOT
ATOM      1  C   UNL     1      -0.846   1.185   4.859  0.00  0.00    +0.000 C 
ATOM      2  O   UNL     1      -1.189   2.150   4.231  0.00  0.00    +0.000 OA
ENDROOT
BRANCH   1   3
ATOM      3  C   UNL     1      -1.768   0.133   5.349  0.00  0.00    +0.000 C 
ATOM      4  C   UNL     1      -2.539   0.343   6.419  0.00  0.00    +0.000 C 
BRANCH   4   5
ATOM      5  C   UNL     1      -3.464  -0.667   6.986  0.00  0.00    +0.000 A 
ATOM      6  C   UNL     1      -3.204  -2.013   6.936  0.00  0.00    +0.000 A 
ATOM      7  C   UNL     1      -4.100  -2.926   7.482  0.00  0.00    +0.000 A 
ATOM      8  C   UNL     1      -5.256  -2.496   8.077  0.00  0.00    +0.000 A 
ATOM      9  C   UNL     1      -5.522  -1.150   8.128  0.00  0.00    +0.000 A 
ATOM     10  C   UNL     1      -4.629  -0.235   7.581  0.00  0.00    +0.000 A 
BRANCH   8  11
ATOM     11  O   UNL     1      -6.170  -3.341   8.636  0.00  0.00    +0.000 OA
ATOM     12  C   UNL     1      -7.492  -3.384   8.137  0.00  0.00    +0.000 C 
ENDBRANCH   8  11
ENDBRANCH   4   5
ENDBRANCH   1   3
BRANCH   1  13
ATOM     13  O   UNL     1       0.435   0.974   5.180  0.00  0.00    +0.000 OA
BRANCH  13  14
ATOM     14  C   UNL     1       0.917  -0.340   5.368  0.00  0.00    +0.000 C 
BRANCH  14  15
ATOM     15  C   UNL     1       1.935  -0.680   4.291  0.00  0.00    +0.000 C 
ATOM     16  C   UNL     1       3.255  -0.004   4.434  0.00  0.00    +0.000 C 
ENDBRANCH  14  15
BRANCH  14  17
ATOM     17  C   UNL     1       1.587  -0.417   6.722  0.00  0.00    +0.000 C 
BRANCH  17  18
ATOM     18  C   UNL     1       0.761  -1.089   7.770  0.00  0.00    +0.000 C 
BRANCH  18  20
ATOM     19  C   UNL     1      -0.861  -0.748   9.634  0.00  0.00    +0.000 C 
ATOM     20  C   UNL     1       0.157  -0.103   8.736  0.00  0.00    +0.000 C 
ENDBRANCH  18  20
ENDBRANCH  17  18
ENDBRANCH  14  17
ENDBRANCH  13  14
ENDBRANCH   1  13
TORSDOF 9
ENDMDL
MODEL 9
REMARK VINA RESULT:      -4.2      1.349      2.256
REMARK  Name = shuffle_control_ligand
REMARK  12 active torsions:
REMARK  status: ('A' for Active; 'I' for Inactive)
REMARK    1  A    between atoms: C_1  and  C_2
REMARK    2  A    between atoms: C_2  and  C_3
REMARK    3  A    between atoms: C_3  and  C_4
REMARK    4  A    between atoms: C_4  and  C_5
REMARK    5  A    between atoms: C_5  and  C_6
REMARK    6  A    between atoms: C_5  and  O_8
REMARK    7  A    between atoms: C_6  and  C_7
REMARK    8  A    between atoms: O_8  and  C_9
REMARK    9  A    between atoms: C_9  and  C_11
REMARK   10  A    between atoms: C_12  and  C_13
REMARK   11  A    between atoms: C_16  and  O_17
REMARK   12  A    between atoms: O_17  and  C_18
REMARK                            x       y       z     vdW  Elec       q    Type
REMARK                         _______ _______ _______ _____ _____    ______ ____
ROOT
ATOM      1  C   UNL     1      -2.832   1.678   8.416  0.00  0.00    +0.000 C 
ATOM      2  O   UNL     1      -2.324   1.286   9.431  0.00  0.00    +0.000 OA
ENDROOT
BRANCH   1   3
ATOM      3  C   UNL     1      -4.219   2.193   8.318  0.00  0.00    +0.000 C 
ATOM      4  C   UNL     1      -5.212   1.407   7.894  0.00  0.00    +0.000 C 
BRANCH   4   5
ATOM      5  C   UNL     1      -6.617   1.856   7.742  0.00  0.00    +0.000 A 
ATOM      6  C   UNL     1      -7.037   3.102   8.129  0.00  0.00    +0.000 A 
ATOM      7  C   UNL     1      -8.365   3.482   7.967  0.00  0.00    +0.000 A 
ATOM      8  C   UNL     1      -9.275   2.617   7.420  0.00  0.00    +0.000 A 
ATOM      9  C   UNL     1      -8.860   1.366   7.033  0.00  0.00    +0.000 A 
ATOM     10  C   UNL     1      -7.534   0.983   7.196  0.00  0.00    +0.000 A 
BRANCH   8  11
ATOM     11  O   UNL     1     -10.588   2.933   7.229  0.00  0.00    +0.000 OA
ATOM     12  C   UNL     1     -11.359   3.436   8.303  0.00  0.00    +0.000 C 
ENDBRANCH   8  11
ENDBRANCH   4   5
ENDBRANCH   1   3
BRANCH   1  13
ATOM     13  O   UNL     1      -2.171   1.681   7.254  0.00  0.00    +0.000 OA
BRANCH  13  14
ATOM     14  C   UNL     1      -1.587   0.493   6.762  0.00  0.00    +0.000 C 
BRANCH  14  15
ATOM     15  C   UNL     1      -2.624  -0.321   6.005  0.00  0.00    +0.000 C 
ATOM     16  C   UNL     1      -2.675  -1.767   6.361  0.00  0.00    +0.000 C 
ENDBRANCH  14  15
BRANCH  14  17
ATOM     17  C   UNL     1      -0.466   0.864   5.817  0.00  0.00    +0.000 C 
BRANCH  17  18
ATOM     18  C   UNL     1       0.755   0.015   5.964  0.00  0.00    +0.000 C 
BRANCH  18  20
ATOM     19  C   UNL     1       0.204  -1.247   3.884  0.00  0.00    +0.000 C 
ATOM     20  C   UNL     1       1.260  -0.489   4.637  0.00  0.00    +0.000 C 
ENDBRANCH  18  20
ENDBRANCH  17  18
ENDBRANCH  14  17
ENDBRANCH  13  14
ENDBRANCH   1  13
TORSDOF 9
ENDMDL
