REMARK  Name = bgox31_5_ligand
REMARK  5 active torsions:
REMARK  status: ('A' for Active; 'I' for Inactive)
REMARK    1  A    between atoms: C_1  and  O_2
REMARK    2  A    between atoms: O_2  and  C_3
REMARK    3  A    between atoms: C_6  and  C_7
REMARK    4  A    between atoms: C_7  and  C_9
REMARK    5  A    between atoms: C_15  and  O_16
REMARK                            x       y       z     vdW  Elec       q    Type
REMARK                         _______ _______ _______ _____ _____    ______ ____
ROOT
ATOM      1  C   UNL     1      -8.046   5.168  -1.503  0.00  0.00    +0.000 A 
ATOM      2  C   UNL     1      -7.593   5.444  -2.755  0.00  0.00    +0.000 A 
ATOM      3  C   UNL     1      -6.244   5.182  -3.075  0.00  0.00    +0.000 A 
ATOM      4  C   UNL     1      -5.346   4.665  -2.164  0.00  0.00    +0.000 A 
ATOM      5  C   UNL     1      -5.808   4.394  -0.878  0.00  0.00    +0.000 A 
ATOM      6  C   UNL     1      -7.165   4.653  -0.540  0.00  0.00    +0.000 A 
ENDROOT
BRANCH   1   8
ATOM      7  C   UNL     1     -10.021   5.587  -0.002  0.00  0.00    +0.000 C 
ATOM      8  O   UNL     1      -9.437   5.499  -1.332  0.00  0.00    +0.000 OA
ENDBRANCH   1   8
BRANCH   4   9
ATOM      9  C   UNL     1      -3.975   4.442  -2.555  0.00  0.00    +0.000 C 
ATOM     10  O   UNL     1      -3.111   4.370  -1.673  0.00  0.00    +0.000 OA
BRANCH   9  11
ATOM     11  C   UNL     1      -3.598   4.412  -4.003  0.00  0.00    +0.000 A 
ATOM     12  C   UNL     1      -2.644   5.232  -4.581  0.00  0.00    +0.000 A 
ATOM     13  C   UNL     1      -2.337   5.151  -5.967  0.00  0.00    +0.000 A 
ATOM     14  C   UNL     1      -2.952   4.258  -6.791  0.00  0.00    +0.000 A 
ATOM     15  C   UNL     1      -3.888   3.408  -6.252  0.00  0.00    +0.000 A 
ATOM     16  C   UNL     1      -4.213   3.520  -4.879  0.00  0.00    +0.000 A 
ENDBRANCH   9  11
ENDBRANCH   4   9
BRANCH   5  17
ATOM     17  O   UNL     1      -4.958   3.875   0.041  0.00  0.00    +0.000 OA
ATOM     18  H   UNL     1      -5.278   3.679   0.957  0.00  0.00    +0.000 HD
ENDBRANCH   5  17
TORSDOF 4
