MODEL 1
REMARK VINA RESULT:      -4.6      0.000      0.000
REMARK  Name = bgox31_5_ligand
REMARK  5 active torsions:
REMARK  status: ('A' for Active; 'I' for Inactive)
REMARK    1  A    between atoms: C_1  and  O_2
REMARK    2  A    between atoms: O_2  and  C_3
REMARK    3  A    between atoms: C_6  and  C_7
REMARK    4  A    between atoms: C_7  and  C_9
REMARK    5  A    between atoms: C_15  and  O_16
REMARK                            x       y       z     vdW  Elec       q    Type
REMARK                         _______ _______ _______ _____ _____    ______ ____
ROOT
ATOM      1  C   UNL     1      -3.069   4.104  -5.703  0.00  0.00    +0.000 A 
ATOM      2  C   UNL     1      -4.243   4.721  -5.402  0.00  0.00    +0.000 A 
ATOM      3  C   UNL     1      -4.551   4.998  -4.053  0.00  0.00    +0.000 A 
ATOM      4  C   UNL     1      -3.715   4.658  -3.009  0.00  0.00    +0.000 A 
ATOM      5  C   UNL     1      -2.519   4.014  -3.318  0.00  0.00    +0.000 A 
ATOM      6  C   UNL     1      -2.194   3.727  -4.673  0.00  0.00    +0.000 A 
ENDROOT
BRANCH   1   8
ATOM      7  C   UNL     1      -1.851   3.015  -7.616  0.00  0.00    +0.000 C 
ATOM      8  O   UNL     1      -2.907   3.883  -7.117  0.00  0.00    +0.000 OA
ENDBRANCH   1   8
BRANCH   4   9
ATOM      9  C   UNL     1      -4.105   4.953  -1.652  0.00  0.00    +0.000 C 
ATOM     10  O   UNL     1      -3.234   5.305  -0.848  0.00  0.00    +0.000 OA
BRANCH   9  11
ATOM     11  C   UNL     1      -5.516   4.729  -1.205  0.00  0.00    +0.000 A 
ATOM     12  C   UNL     1      -6.379   5.733  -0.802  0.00  0.00    +0.000 A 
ATOM     13  C   UNL     1      -7.709   5.447  -0.387  0.00  0.00    +0.000 A 
ATOM     14  C   UNL     1      -8.204   4.179  -0.377  0.00  0.00    +0.000 A 
ATOM     15  C   UNL     1      -7.387   3.155  -0.794  0.00  0.00    +0.000 A 
ATOM     16  C   UNL     1      -6.054   3.444  -1.171  0.00  0.00    +0.000 A 
ENDBRANCH   9  11
ENDBRANCH   4   9
BRANCH   5  17
ATOM     17  O   UNL     1      -1.667   3.674  -2.320  0.00  0.00    +0.000 OA
ATOM     18  H   UNL     1      -1.994   3.617  -1.388  0.00  0.00    +0.000 HD
ENDBRANCH   5  17
TORSDOF 4
ENDMDL
MODEL 2
REMARK VINA RESULT:      -4.5      1.450      2.330
REMARK  Name = bgox31_5_ligand
REMARK  5 active torsions:
REMARK  status: ('A' for Active; 'I' for Inactive)
REMARK    1  A    between atoms: C_1  and  O_2
REMARK    2  A    between atoms: O_2  and  C_3
REMARK    3  A    between atoms: C_6  and  C_7
REMARK    4  A    between atoms: C_7  and  C_9
REMARK    5  A    between atoms: C_15  and  O_16
REMARK                            x       y       z     vdW  Elec       q    Type
REMARK                         _______ _______ _______ _____ _____    ______ ____
ROOT
ATOM      1  C   UNL     1      -3.312   4.024  -5.520  0.00  0.00    +0.000 A 
ATOM      2  C   UNL     1      -4.530   4.511  -5.161  0.00  0.00    +0.000 A 
ATOM      3  C   UNL     1      -4.793   4.780  -3.801  0.00  0.00    +0.000 A 
ATOM      4  C   UNL     1      -3.868   4.559  -2.802  0.00  0.00    +0.000 A 
ATOM      5  C   UNL     1      -2.625   4.049  -3.169  0.00  0.00    +0.000 A 
ATOM      6  C   UNL     1      -2.344   3.772  -4.536  0.00  0.00    +0.000 A 
ENDROOT
BRANCH   1   8
ATOM      7  C   UNL     1      -1.974   3.268  -7.512  0.00  0.00    +0.000 C 
ATOM      8  O   UNL     1      -3.204   3.793  -6.937  0.00  0.00    +0.000 OA
ENDBRANCH   1   8
BRANCH   4   9
ATOM      9  C   UNL     1      -4.214   4.838  -1.429  0.00  0.00    +0.000 C 
ATOM     10  O   UNL     1      -4.049   3.950  -0.584  0.00  0.00    +0.000 OA
BRANCH   9  11
ATOM     11  C   UNL     1      -4.862   6.135  -1.062  0.00  0.00    +0.000 A 
ATOM     12  C   UNL     1      -6.139   6.253  -0.541  0.00  0.00    +0.000 A 
ATOM     13  C   UNL     1      -6.695   7.521  -0.217  0.00  0.00    +0.000 A 
ATOM     14  C   UNL     1      -5.998   8.679  -0.388  0.00  0.00    +0.000 A 
ATOM     15  C   UNL     1      -4.717   8.604  -0.879  0.00  0.00    +0.000 A 
ATOM     16  C   UNL     1      -4.185   7.341  -1.233  0.00  0.00    +0.000 A 
ENDBRANCH   9  11
ENDBRANCH   4   9
BRANCH   5  17
ATOM     17  O   UNL     1      -1.686   3.829  -2.217  0.00  0.00    +0.000 OA
ATOM     18  H   UNL     1      -1.505   4.519  -1.531  0.00  0.00    +0.000 HD
ENDBRANCH   5  17
TORSDOF 4
ENDMDL
MODEL 3
REMARK VINA RESULT:      -4.4      4.736      7.563
REMARK  Name = bgox31_5_ligand
REMARK  5 active torsions:
REMARK  status: ('A' for Active; 'I' for Inactive)
REMARK    1  A    between atoms: C_1  and  O_2
REMARK    2  A    between atoms: O_2  and  C_3
REMARK    3  A    between atoms: C_6  and  C_7
REMARK    4  A    between atoms: C_7  and  C_9
REMARK    5  A    between atoms: C_15  and  O_16
REMARK                            x       y       z     vdW  Elec       q    Type
REMARK                         _______ _______ _______ _____ _____    ______ ____
ROOT
ATOM      1  C   UNL     1      -3.740  10.534   2.707  0.00  0.00    +0.000 A 
ATOM      2  C   UNL     1      -2.871  10.085   1.762  0.00  0.00    +0.000 A 
ATOM      3  C   UNL     1      -3.372   9.412   0.627  0.00  0.00    +0.000 A 
ATOM      4  C   UNL     1      -4.716   9.171   0.433  0.00  0.00    +0.000 A 
ATOM      5  C   UNL     1      -5.605   9.621   1.408  0.00  0.00    +0.000 A 
ATOM      6  C   UNL     1      -5.115  10.301   2.557  0.00  0.00    +0.000 A 
ENDROOT
BRANCH   1   8
ATOM      7  C   UNL     1      -1.736  11.734   3.640  0.00  0.00    +0.000 C 
ATOM      8  O   UNL     1      -3.075  11.189   3.803  0.00  0.00    +0.000 OA
ENDBRANCH   1   8
BRANCH   4   9
ATOM      9  C   UNL     1      -5.155   8.457  -0.742  0.00  0.00    +0.000 C 
ATOM     10  O   UNL     1      -5.704   9.092  -1.651  0.00  0.00    +0.000 OA
BRANCH   9  11
ATOM     11  C   UNL     1      -5.048   6.966  -0.803  0.00  0.00    +0.000 A 
ATOM     12  C   UNL     1      -3.900   6.278  -1.159  0.00  0.00    +0.000 A 
ATOM     13  C   UNL     1      -3.869   4.857  -1.199  0.00  0.00    +0.000 A 
ATOM     14  C   UNL     1      -4.956   4.102  -0.877  0.00  0.00    +0.000 A 
ATOM     15  C   UNL     1      -6.109   4.746  -0.494  0.00  0.00    +0.000 A 
ATOM     16  C   UNL     1      -6.141   6.161  -0.492  0.00  0.00    +0.000 A 
ENDBRANCH   9  11
ENDBRANCH   4   9
BRANCH   5  17
ATOM     17  O   UNL     1      -6.934   9.413   1.246  0.00  0.00    +0.000 OA
ATOM     18  H   UNL     1      -7.449   9.971   0.611  0.00  0.00    +0.000 HD
ENDBRANCH   5  17
TORSDOF 4
ENDMDL
MODEL 4
REMARK VINA RESULT:      -4.4      2.559      6.337
REMARK  Name = bgox31_5_ligand
REMARK  5 active torsions:
REMARK  status: ('A' for Active; 'I' for Inactive)
REMARK    1  A    between atoms: C_1  and  O_2
REMARK    2  A    between atoms: O_2  and  C_3
REMARK    3  A    between atoms: C_6  and  C_7
REMARK    4  A    between atoms: C_7  and  C_9
REMARK    5  A    between atoms: C_15  and  O_16
REMARK                            x       y       z     vdW  Elec       q    Type
REMARK                         _______ _______ _______ _____ _____    ______ ____
ROOT
ATOM      1  C   UNL     1      -9.071   3.340  -0.141  0.00  0.00    +0.000 A 
ATOM      2  C   UNL     1      -7.882   2.680  -0.125  0.00  0.00    +0.000 A 
ATOM      3  C   UNL     1      -6.700   3.377  -0.454  0.00  0.00    +0.000 A 
ATOM      4  C   UNL     1      -6.692   4.710  -0.809  0.00  0.00    +0.000 A 
ATOM      5  C   UNL     1      -7.912   5.383  -0.836  0.00  0.00    +0.000 A 
ATOM      6  C   UNL     1      -9.112   4.694  -0.508  0.00  0.00    +0.000 A 
ENDROOT
BRANCH   1   8
ATOM      7  C   UNL     1      -9.959   1.117   0.631  0.00  0.00    +0.000 C 
ATOM      8  O   UNL     1     -10.180   2.491   0.207  0.00  0.00    +0.000 OA
ENDBRANCH   1   8
BRANCH   4   9
ATOM      9  C   UNL     1      -5.447   5.354  -1.153  0.00  0.00    +0.000 C 
ATOM     10  O   UNL     1      -5.219   6.483  -0.704  0.00  0.00    +0.000 OA
BRANCH   9  11
ATOM     11  C   UNL     1      -4.508   4.710  -2.124  0.00  0.00    +0.000 A 
ATOM     12  C   UNL     1      -4.838   4.369  -3.425  0.00  0.00    +0.000 A 
ATOM     13  C   UNL     1      -3.894   3.756  -4.294  0.00  0.00    +0.000 A 
ATOM     14  C   UNL     1      -2.619   3.487  -3.899  0.00  0.00    +0.000 A 
ATOM     15  C   UNL     1      -2.243   3.833  -2.623  0.00  0.00    +0.000 A 
ATOM     16  C   UNL     1      -3.199   4.409  -1.753  0.00  0.00    +0.000 A 
ENDBRANCH   9  11
ENDBRANCH   4   9
BRANCH   5  17
ATOM     17  O   UNL     1      -7.942   6.696  -1.169  0.00  0.00    +0.000 OA
ATOM     18  H   UNL     1      -7.273   7.319  -0.789  0.00  0.00    +0.000 HD
ENDBRANCH   5  17
TORSDOF 4
ENDMDL
MODEL 5
REMARK VINA RESULT:      -4.4      2.867      6.111
REMARK  Name = bgox31_5_ligand
REMARK  5 active torsions:
REMARK  status: ('A' for Active; 'I' for Inactive)
REMARK    1  A    between atoms: C_1  and  O_2
REMARK    2  A    between atoms: O_2  and  C_3
REMARK    3  A    between atoms: C_6  and  C_7
REMARK    4  A    between atoms: C_7  and  C_9
REMARK    5  A    between atoms: C_15  and  O_16
REMARK                            x       y       z     vdW  Elec       q    Type
REMARK                         _______ _______ _______ _____ _____    ______ ____
ROOT
ATOM      1  C   UNL     1      -5.763   9.053  -0.490  0.00  0.00    +0.000 A 
ATOM      2  C   UNL     1      -4.558   8.582  -0.909  0.00  0.00    +0.000 A 
ATOM      3  C   UNL     1      -4.365   7.189  -1.030  0.00  0.00    +0.000 A 
ATOM      4  C   UNL     1      -5.348   6.269  -0.727  0.00  0.00    +0.000 A 
ATOM      5  C   UNL     1      -6.578   6.752  -0.286  0.00  0.00    +0.000 A 
ATOM      6  C   UNL     1      -6.787   8.153  -0.159  0.00  0.00    +0.000 A 
ENDROOT
BRANCH   1   8
ATOM      7  C   UNL     1      -4.747  11.221   0.283  0.00  0.00    +0.000 C 
ATOM      8  O   UNL     1      -5.797  10.490  -0.410  0.00  0.00    +0.000 OA
ENDBRANCH   1   8
BRANCH   4   9
ATOM      9  C   UNL     1      -5.073   4.858  -0.854  0.00  0.00    +0.000 C 
ATOM     10  O   UNL     1      -5.376   4.108   0.082  0.00  0.00    +0.000 OA
BRANCH   9  11
ATOM     11  C   UNL     1      -4.335   4.336  -2.047  0.00  0.00    +0.000 A 
ATOM     12  C   UNL     1      -4.923   4.045  -3.266  0.00  0.00    +0.000 A 
ATOM     13  C   UNL     1      -4.160   3.549  -4.358  0.00  0.00    +0.000 A 
ATOM     14  C   UNL     1      -2.816   3.349  -4.268  0.00  0.00    +0.000 A 
ATOM     15  C   UNL     1      -2.189   3.649  -3.082  0.00  0.00    +0.000 A 
ATOM     16  C   UNL     1      -2.962   4.109  -1.989  0.00  0.00    +0.000 A 
ENDBRANCH   9  11
ENDBRANCH   4   9
BRANCH   5  17
ATOM     17  O   UNL     1      -7.571   5.879   0.010  0.00  0.00    +0.000 OA
ATOM     18  H   UNL     1      -8.000   5.354  -0.711  0.00  0.00    +0.000 HD
ENDBRANCH   5  17
TORSDOF 4
ENDMDL
MODEL 6
REMARK VINA RESULT:      -4.2      1.928      5.936
REMARK  Name = bgox31_5_ligand
REMARK  5 active torsions:
REMARK  status: ('A' for Active; 'I' for Inactive)
REMARK    1  A    between atoms: C_1  and  O_2
REMARK    2  A    between atoms: O_2  and  C_3
REMARK    3  A    between atoms: C_6  and  C_7
REMARK    4  A    between atoms: C_7  and  C_9
REMARK    5  A    between atoms: C_15  and  O_16
REMARK                            x       y       z     vdW  Elec       q    Type
REMARK                         _______ _______ _______ _____ _____    ______ ____
ROOT
ATOM      1  C   UNL     1      -8.230   3.948  -0.515  0.00  0.00    +0.000 A 
ATOM      2  C   UNL     1      -7.374   3.027  -1.032  0.00  0.00    +0.000 A 
ATOM      3  C   UNL     1      -6.055   3.412  -1.353  0.00  0.00    +0.000 A 
ATOM      4  C   UNL     1      -5.589   4.699  -1.179  0.00  0.00    +0.000 A 
ATOM      5  C   UNL     1      -6.470   5.645  -0.661  0.00  0.00    +0.000 A 
ATOM      6  C   UNL     1      -7.803   5.272  -0.333  0.00  0.00    +0.000 A 
ENDROOT
BRANCH   1   8
ATOM      7  C   UNL     1      -9.761   1.966  -0.282  0.00  0.00    +0.000 C 
ATOM      8  O   UNL     1      -9.536   3.403  -0.250  0.00  0.00    +0.000 OA
ENDBRANCH   1   8
BRANCH   4   9
ATOM      9  C   UNL     1      -4.233   5.027  -1.549  0.00  0.00    +0.000 C 
ATOM     10  O   UNL     1      -3.502   5.562  -0.708  0.00  0.00    +0.000 OA
BRANCH   9  11
ATOM     11  C   UNL     1      -3.765   4.825  -2.956  0.00  0.00    +0.000 A 
ATOM     12  C   UNL     1      -4.270   5.499  -4.055  0.00  0.00    +0.000 A 
ATOM     13  C   UNL     1      -3.778   5.254  -5.366  0.00  0.00    +0.000 A 
ATOM     14  C   UNL     1      -2.781   4.359  -5.608  0.00  0.00    +0.000 A 
ATOM     15  C   UNL     1      -2.234   3.686  -4.541  0.00  0.00    +0.000 A 
ATOM     16  C   UNL     1      -2.754   3.909  -3.244  0.00  0.00    +0.000 A 
ENDBRANCH   9  11
ENDBRANCH   4   9
BRANCH   5  17
ATOM     17  O   UNL     1      -6.044   6.917  -0.465  0.00  0.00    +0.000 OA
ATOM     18  H   UNL     1      -5.898   7.255   0.454  0.00  0.00    +0.000 HD
ENDBRANCH   5  17
TORSDOF 4
ENDMDL
MODEL 7
REMARK VINA RESULT:      -4.1      3.215      5.428
REMARK  Name = bgox31_5_ligand
REMARK  5 active torsions:
REMARK  status: ('A' for Active; 'I' for Inactive)
REMARK    1  A    between atoms: C_1  and  O_2
REMARK    2  A    between atoms: O_2  and  C_3
REMARK    3  A    between atoms: C_6  and  C_7
REMARK    4  A    between atoms: C_7  and  C_9
REMARK    5  A    between atoms: C_15  and  O_16
REMARK                            x       y       z     vdW  Elec       q    Type
REMARK                         _______ _______ _______ _____ _____    ______ ____
ROOT
ATOM      1  C   UNL     1      -1.969   1.712  -9.863  0.00  0.00    +0.000 A 
ATOM      2  C   UNL     1      -1.440   1.264  -8.694  0.00  0.00    +0.000 A 
ATOM      3  C   UNL     1      -1.360   2.140  -7.591  0.00  0.00    +0.000 A 
ATOM      4  C   UNL     1      -1.785   3.451  -7.645  0.00  0.00    +0.000 A 
ATOM      5  C   UNL     1      -2.315   3.914  -8.847  0.00  0.00    +0.000 A 
ATOM      6  C   UNL     1      -2.403   3.043  -9.968  0.00  0.00    +0.000 A 
ENDROOT
BRANCH   1   8
ATOM      7  C   UNL     1      -0.739   0.038 -11.282  0.00  0.00    +0.000 C 
ATOM      8  O   UNL     1      -1.972   0.705 -10.892  0.00  0.00    +0.000 OA
ENDBRANCH   1   8
BRANCH   4   9
ATOM      9  C   UNL     1      -1.653   4.297  -6.483  0.00  0.00    +0.000 C 
ATOM     10  O   UNL     1      -0.840   5.228  -6.517  0.00  0.00    +0.000 OA
BRANCH   9  11
ATOM     11  C   UNL     1      -2.404   3.979  -5.228  0.00  0.00    +0.000 A 
ATOM     12  C   UNL     1      -3.775   3.801  -5.161  0.00  0.00    +0.000 A 
ATOM     13  C   UNL     1      -4.426   3.503  -3.932  0.00  0.00    +0.000 A 
ATOM     14  C   UNL     1      -3.736   3.365  -2.766  0.00  0.00    +0.000 A 
ATOM     15  C   UNL     1      -2.369   3.509  -2.794  0.00  0.00    +0.000 A 
ATOM     16  C   UNL     1      -1.734   3.841  -4.014  0.00  0.00    +0.000 A 
ENDBRANCH   9  11
ENDBRANCH   4   9
BRANCH   5  17
ATOM     17  O   UNL     1      -2.754   5.193  -8.935  0.00  0.00    +0.000 OA
ATOM     18  H   UNL     1      -2.393   5.794  -9.634  0.00  0.00    +0.000 HD
ENDBRANCH   5  17
TORSDOF 4
ENDMDL
MODEL 8
REMARK VINA RESULT:      -4.1      2.982      6.672
REMARK  Name = bgox31_5_ligand
REMARK  5 active torsions:
REMARK  status: ('A' for Active; 'I' for Inactive)
REMARK    1  A    between atoms: C_1  and  O_2
REMARK    2  A    between atoms: O_2  and  C_3
REMARK    3  A    between atoms: C_6  and  C_7
REMARK    4  A    between atoms: C_7  and  C_9
REMARK    5  A    between atoms: C_15  and  O_16
REMARK                            x       y       z     vdW  Elec       q    Type
REMARK                         _______ _______ _______ _____ _____    ______ ____
ROOT
ATOM      1  C   UNL     1      -7.836   7.972   0.236  0.00  0.00    +0.000 A 
ATOM      2  C   UNL     1      -6.508   7.777   0.019  0.00  0.00    +0.000 A 
ATOM      3  C   UNL     1      -6.046   6.492  -0.334  0.00  0.00    +0.000 A 
ATOM      4  C   UNL     1      -6.885   5.403  -0.457  0.00  0.00    +0.000 A 
ATOM      5  C   UNL     1      -8.244   5.600  -0.223  0.00  0.00    +0.000 A 
ATOM      6  C   UNL     1      -8.725   6.891   0.133  0.00  0.00    +0.000 A 
ENDROOT
BRANCH   1   8
ATOM      7  C   UNL     1      -9.355   9.645   1.340  0.00  0.00    +0.000 C 
ATOM      8  O   UNL     1      -8.145   9.331   0.594  0.00  0.00    +0.000 OA
ENDBRANCH   1   8
BRANCH   4   9
ATOM      9  C   UNL     1      -6.340   4.112  -0.800  0.00  0.00    +0.000 C 
ATOM     10  O   UNL     1      -6.816   3.105  -0.262  0.00  0.00    +0.000 OA
BRANCH   9  11
ATOM     11  C   UNL     1      -5.150   4.010  -1.702  0.00  0.00    +0.000 A 
ATOM     12  C   UNL     1      -3.835   4.104  -1.277  0.00  0.00    +0.000 A 
ATOM     13  C   UNL     1      -2.751   4.000  -2.191  0.00  0.00    +0.000 A 
ATOM     14  C   UNL     1      -2.947   3.789  -3.522  0.00  0.00    +0.000 A 
ATOM     15  C   UNL     1      -4.237   3.665  -3.981  0.00  0.00    +0.000 A 
ATOM     16  C   UNL     1      -5.311   3.806  -3.070  0.00  0.00    +0.000 A 
ENDBRANCH   9  11
ENDBRANCH   4   9
BRANCH   5  17
ATOM     17  O   UNL     1      -9.101   4.558  -0.346  0.00  0.00    +0.000 OA
ATOM     18  H   UNL     1      -9.556   4.389  -1.208  0.00  0.00    +0.000 HD
ENDBRANCH   5  17
TORSDOF 4
ENDMDL
MODEL 9
REMARK VINA RESULT:      -4.1      4.129      5.996
REMARK  Name = bgox31_5_ligand
REMARK  5 active torsions:
REMARK  status: ('A' for Active; 'I' for Inactive)
REMARK    1  A    between atoms: C_1  and  O_2
REMARK    2  A    between atoms: O_2  and  C_3
REMARK    3  A    between atoms: C_6  and  C_7
REMARK    4  A    between atoms: C_7  and  C_9
REMARK    5  A    between atoms: C_15  and  O_16
REMARK                            x       y       z     vdW  Elec       q    Type
REMARK                         _______ _______ _______ _____ _____    ______ ____
ROOT
ATOM      1  C   UNL     1      -5.058   4.887  -1.478  0.00  0.00    +0.000 A 
ATOM      2  C   UNL     1      -4.128   5.828  -1.792  0.00  0.00    +0.000 A 
ATOM      3  C   UNL     1      -4.312   7.156  -1.354  0.00  0.00    +0.000 A 
ATOM      4  C   UNL     1      -5.412   7.556  -0.623  0.00  0.00    +0.000 A 
ATOM      5  C   UNL     1      -6.371   6.594  -0.312  0.00  0.00    +0.000 A 
ATOM      6  C   UNL     1      -6.199   5.252  -0.748  0.00  0.00    +0.000 A 
ENDROOT
BRANCH   1   8
ATOM      7  C   UNL     1      -3.379   3.286  -2.451  0.00  0.00    +0.000 C 
ATOM      8  O   UNL     1      -4.731   3.588  -2.005  0.00  0.00    +0.000 OA
ENDBRANCH   1   8
BRANCH   4   9
ATOM      9  C   UNL     1      -5.547   8.937  -0.226  0.00  0.00    +0.000 C 
ATOM     10  O   UNL     1      -6.364   9.649  -0.821  0.00  0.00    +0.000 OA
BRANCH   9  11
ATOM     11  C   UNL     1      -4.635   9.517   0.810  0.00  0.00    +0.000 A 
ATOM     12  C   UNL     1      -3.259   9.607   0.680  0.00  0.00    +0.000 A 
ATOM     13  C   UNL     1      -2.452  10.169   1.706  0.00  0.00    +0.000 A 
ATOM     14  C   UNL     1      -2.988  10.658   2.859  0.00  0.00    +0.000 A 
ATOM     15  C   UNL     1      -4.352  10.610   3.018  0.00  0.00    +0.000 A 
ATOM     16  C   UNL     1      -5.144  10.017   2.006  0.00  0.00    +0.000 A 
ENDBRANCH   9  11
ENDBRANCH   4   9
BRANCH   5  17
ATOM     17  O   UNL     1      -7.460   6.947   0.413  0.00  0.00    +0.000 OA
ATOM     18  H   UNL     1      -8.341   6.543   0.214  0.00  0.00    +0.000 HD
ENDBRANCH   5  17
TORSDOF 4
ENDMDL
