REMARK  Name = orig_f12_ligand
REMARK  12 active torsions:
REMARK  status: ('A' for Active; 'I' for Inactive)
REMARK    1  A    between atoms: C_1  and  C_2
REMARK    2  A    between atoms: C_2  and  C_3
REMARK    3  A    between atoms: C_3  and  C_4
REMARK    4  A    between atoms: C_4  and  C_5
REMARK    5  A    between atoms: C_5  and  C_6
REMARK    6  A    between atoms: C_5  and  O_8
REMARK    7  A    between atoms: C_6  and  C_7
REMARK    8  A    between atoms: O_8  and  C_9
REMARK    9  A    between atoms: C_9  and  C_11
REMARK   10  A    between atoms: C_12  and  C_13
REMARK   11  A    between atoms: C_16  and  O_17
REMARK   12  A    between atoms: O_17  and  C_18
REMARK                            x       y       z     vdW  Elec       q    Type
REMARK                         _______ _______ _______ _____ _____    ______ ____
ROOT
ATOM      1  C   UNL     1       5.140  -5.654  -3.792  0.00  0.00    +0.000 C 
ATOM      2  O   UNL     1       6.125  -5.218  -4.348  0.00  0.00    +0.000 OA
ENDROOT
BRANCH   1   3
ATOM      3  C   UNL     1       4.041  -6.352  -4.471  0.00  0.00    +0.000 C 
ATOM      4  C   UNL     1       3.885  -6.199  -5.791  0.00  0.00    +0.000 C 
BRANCH   4   5
ATOM      5  C   UNL     1       2.741  -6.768  -6.524  0.00  0.00    +0.000 A 
ATOM      6  C   UNL     1       1.855  -7.640  -5.933  0.00  0.00    +0.000 A 
ATOM      7  C   UNL     1       0.768  -8.127  -6.641  0.00  0.00    +0.000 A 
ATOM      8  C   UNL     1       0.576  -7.751  -7.943  0.00  0.00    +0.000 A 
ATOM      9  C   UNL     1       1.459  -6.874  -8.544  0.00  0.00    +0.000 A 
ATOM     10  C   UNL     1       2.552  -6.395  -7.832  0.00  0.00    +0.000 A 
BRANCH   8  11
ATOM     11  O   UNL     1      -0.486  -8.185  -8.684  0.00  0.00    +0.000 OA
ATOM     12  C   UNL     1      -1.233  -9.317  -8.254  0.00  0.00    +0.000 C 
ENDBRANCH   8  11
ENDBRANCH   4   5
ENDBRANCH   1   3
BRANCH   1  13
ATOM     13  O   UNL     1       4.921  -5.503  -2.493  0.00  0.00    +0.000 OA
BRANCH  13  14
ATOM     14  C   UNL     1       5.697  -4.578  -1.770  0.00  0.00    +0.000 C 
BRANCH  14  15
ATOM     15  C   UNL     1       4.798  -3.491  -1.202  0.00  0.00    +0.000 C 
ATOM     16  C   UNL     1       3.328  -3.854  -1.111  0.00  0.00    +0.000 C 
ENDBRANCH  14  15
BRANCH  14  17
ATOM     17  C   UNL     1       6.421  -5.316  -0.665  0.00  0.00    +0.000 C 
BRANCH  17  18
ATOM     18  C   UNL     1       7.436  -6.296  -1.155  0.00  0.00    +0.000 C 
BRANCH  18  20
ATOM     19  C   UNL     1       9.203  -7.938  -0.516  0.00  0.00    +0.000 C 
ATOM     20  C   UNL     1       8.162  -6.963  -0.021  0.00  0.00    +0.000 C 
ENDBRANCH  18  20
ENDBRANCH  17  18
ENDBRANCH  14  17
ENDBRANCH  13  14
ENDBRANCH   1  13
TORSDOF 9
