MODEL 1
REMARK VINA RESULT:      -3.6      0.000      0.000
REMARK  Name = orig_f12_ligand
REMARK  12 active torsions:
REMARK  status: ('A' for Active; 'I' for Inactive)
REMARK    1  A    between atoms: C_1  and  C_2
REMARK    2  A    between atoms: C_2  and  C_3
REMARK    3  A    between atoms: C_3  and  C_4
REMARK    4  A    between atoms: C_4  and  C_5
REMARK    5  A    between atoms: C_5  and  C_6
REMARK    6  A    between atoms: C_5  and  O_8
REMARK    7  A    between atoms: C_6  and  C_7
REMARK    8  A    between atoms: O_8  and  C_9
REMARK    9  A    between atoms: C_9  and  C_11
REMARK   10  A    between atoms: C_12  and  C_13
REMARK   11  A    between atoms: C_16  and  O_17
REMARK   12  A    between atoms: O_17  and  C_18
REMARK                            x       y       z     vdW  Elec       q    Type
REMARK                         _______ _______ _______ _____ _____    ______ ____
ROOT
ATOM      1  C   UNL     1       9.300  -4.823  -0.953  0.00  0.00    +0.000 C 
ATOM      2  O   UNL     1       8.551  -4.296  -0.158  0.00  0.00    +0.000 OA
ENDROOT
BRANCH   1   3
ATOM      3  C   UNL     1       8.873  -5.736  -2.020  0.00  0.00    +0.000 C 
ATOM      4  C   UNL     1       9.334  -6.992  -2.029  0.00  0.00    +0.000 C 
BRANCH   4   5
ATOM      5  C   UNL     1       9.048  -7.932  -3.127  0.00  0.00    +0.000 A 
ATOM      6  C   UNL     1       7.763  -8.222  -3.525  0.00  0.00    +0.000 A 
ATOM      7  C   UNL     1       7.532  -9.082  -4.587  0.00  0.00    +0.000 A 
ATOM      8  C   UNL     1       8.586  -9.661  -5.240  0.00  0.00    +0.000 A 
ATOM      9  C   UNL     1       9.880  -9.375  -4.848  0.00  0.00    +0.000 A 
ATOM     10  C   UNL     1      10.106  -8.518  -3.778  0.00  0.00    +0.000 A 
BRANCH   8  11
ATOM     11  O   UNL     1       8.419 -10.503  -6.302  0.00  0.00    +0.000 OA
ATOM     12  C   UNL     1       7.655 -10.081  -7.426  0.00  0.00    +0.000 C 
ENDBRANCH   8  11
ENDBRANCH   4   5
ENDBRANCH   1   3
BRANCH   1  13
ATOM     13  O   UNL     1      10.616  -4.666  -0.914  0.00  0.00    +0.000 OA
BRANCH  13  14
ATOM     14  C   UNL     1      11.285  -4.790   0.318  0.00  0.00    +0.000 C 
BRANCH  14  15
ATOM     15  C   UNL     1      11.964  -6.149   0.395  0.00  0.00    +0.000 C 
ATOM     16  C   UNL     1      12.834  -6.502  -0.796  0.00  0.00    +0.000 C 
ENDBRANCH  14  15
BRANCH  14  17
ATOM     17  C   UNL     1      12.296  -3.671   0.433  0.00  0.00    +0.000 C 
BRANCH  17  18
ATOM     18  C   UNL     1      11.786  -2.344  -0.028  0.00  0.00    +0.000 C 
BRANCH  18  20
ATOM     19  C   UNL     1      12.285  -2.026  -2.452  0.00  0.00    +0.000 C 
ATOM     20  C   UNL     1      12.704  -1.712  -1.036  0.00  0.00    +0.000 C 
ENDBRANCH  18  20
ENDBRANCH  17  18
ENDBRANCH  14  17
ENDBRANCH  13  14
ENDBRANCH   1  13
TORSDOF 9
ENDMDL
MODEL 2
REMARK VINA RESULT:      -3.5      2.606      7.315
REMARK  Name = orig_f12_ligand
REMARK  12 active torsions:
REMARK  status: ('A' for Active; 'I' for Inactive)
REMARK    1  A    between atoms: C_1  and  C_2
REMARK    2  A    between atoms: C_2  and  C_3
REMARK    3  A    between atoms: C_3  and  C_4
REMARK    4  A    between atoms: C_4  and  C_5
REMARK    5  A    between atoms: C_5  and  C_6
REMARK    6  A    between atoms: C_5  and  O_8
REMARK    7  A    between atoms: C_6  and  C_7
REMARK    8  A    between atoms: O_8  and  C_9
REMARK    9  A    between atoms: C_9  and  C_11
REMARK   10  A    between atoms: C_12  and  C_13
REMARK   11  A    between atoms: C_16  and  O_17
REMARK   12  A    between atoms: O_17  and  C_18
REMARK                            x       y       z     vdW  Elec       q    Type
REMARK                         _______ _______ _______ _____ _____    ______ ____
ROOT
ATOM      1  C   UNL     1       6.720  -8.602  -4.000  0.00  0.00    +0.000 C 
ATOM      2  O   UNL     1       6.255  -8.391  -5.100  0.00  0.00    +0.000 OA
ENDROOT
BRANCH   1   3
ATOM      3  C   UNL     1       7.424  -7.602  -3.189  0.00  0.00    +0.000 C 
ATOM      4  C   UNL     1       8.747  -7.708  -3.022  0.00  0.00    +0.000 C 
BRANCH   4   5
ATOM      5  C   UNL     1       9.507  -6.816  -2.129  0.00  0.00    +0.000 A 
ATOM      6  C   UNL     1       9.037  -5.575  -1.763  0.00  0.00    +0.000 A 
ATOM      7  C   UNL     1       9.760  -4.777  -0.891  0.00  0.00    +0.000 A 
ATOM      8  C   UNL     1      10.958  -5.218  -0.395  0.00  0.00    +0.000 A 
ATOM      9  C   UNL     1      11.436  -6.464  -0.754  0.00  0.00    +0.000 A 
ATOM     10  C   UNL     1      10.711  -7.256  -1.636  0.00  0.00    +0.000 A 
BRANCH   8  11
ATOM     11  O   UNL     1      11.705  -4.483   0.481  0.00  0.00    +0.000 OA
ATOM     12  C   UNL     1      11.073  -3.515   1.311  0.00  0.00    +0.000 C 
ENDBRANCH   8  11
ENDBRANCH   4   5
ENDBRANCH   1   3
BRANCH   1  13
ATOM     13  O   UNL     1       6.684  -9.794  -3.420  0.00  0.00    +0.000 OA
BRANCH  13  14
ATOM     14  C   UNL     1       6.020  -9.936  -2.188  0.00  0.00    +0.000 C 
BRANCH  14  15
ATOM     15  C   UNL     1       4.650 -10.557  -2.414  0.00  0.00    +0.000 C 
ATOM     16  C   UNL     1       3.593 -10.173  -1.397  0.00  0.00    +0.000 C 
ENDBRANCH  14  15
BRANCH  14  17
ATOM     17  C   UNL     1       6.866 -10.805  -1.282  0.00  0.00    +0.000 C 
BRANCH  17  18
ATOM     18  C   UNL     1       7.591 -10.046  -0.219  0.00  0.00    +0.000 C 
BRANCH  18  20
ATOM     19  C   UNL     1       9.465 -11.079  -1.503  0.00  0.00    +0.000 C 
ATOM     20  C   UNL     1       9.078 -10.242  -0.307  0.00  0.00    +0.000 C 
ENDBRANCH  18  20
ENDBRANCH  17  18
ENDBRANCH  14  17
ENDBRANCH  13  14
ENDBRANCH   1  13
TORSDOF 9
ENDMDL
MODEL 3
REMARK VINA RESULT:      -3.5     14.560     16.146
REMARK  Name = orig_f12_ligand
REMARK  12 active torsions:
REMARK  status: ('A' for Active; 'I' for Inactive)
REMARK    1  A    between atoms: C_1  and  C_2
REMARK    2  A    between atoms: C_2  and  C_3
REMARK    3  A    between atoms: C_3  and  C_4
REMARK    4  A    between atoms: C_4  and  C_5
REMARK    5  A    between atoms: C_5  and  C_6
REMARK    6  A    between atoms: C_5  and  O_8
REMARK    7  A    between atoms: C_6  and  C_7
REMARK    8  A    between atoms: O_8  and  C_9
REMARK    9  A    between atoms: C_9  and  C_11
REMARK   10  A    between atoms: C_12  and  C_13
REMARK   11  A    between atoms: C_16  and  O_17
REMARK   12  A    between atoms: O_17  and  C_18
REMARK                            x       y       z     vdW  Elec       q    Type
REMARK                         _______ _______ _______ _____ _____    ______ ____
ROOT
ATOM      1  C   UNL     1      -3.127   1.524  -0.871  0.00  0.00    +0.000 C 
ATOM      2  O   UNL     1      -2.528   1.389   0.175  0.00  0.00    +0.000 OA
ENDROOT
BRANCH   1   3
ATOM      3  C   UNL     1      -2.747   0.885  -2.137  0.00  0.00    +0.000 C 
ATOM      4  C   UNL     1      -2.413   1.650  -3.182  0.00  0.00    +0.000 C 
BRANCH   4   5
ATOM      5  C   UNL     1      -2.136   1.090  -4.516  0.00  0.00    +0.000 A 
ATOM      6  C   UNL     1      -2.194  -0.262  -4.768  0.00  0.00    +0.000 A 
ATOM      7  C   UNL     1      -1.964  -0.752  -6.044  0.00  0.00    +0.000 A 
ATOM      8  C   UNL     1      -1.664   0.111  -7.063  0.00  0.00    +0.000 A 
ATOM      9  C   UNL     1      -1.606   1.470  -6.821  0.00  0.00    +0.000 A 
ATOM     10  C   UNL     1      -1.830   1.955  -5.538  0.00  0.00    +0.000 A 
BRANCH   8  11
ATOM     11  O   UNL     1      -1.446  -0.312  -8.343  0.00  0.00    +0.000 OA
ATOM     12  C   UNL     1      -0.304  -1.108  -8.640  0.00  0.00    +0.000 C 
ENDBRANCH   8  11
ENDBRANCH   4   5
ENDBRANCH   1   3
BRANCH   1  13
ATOM     13  O   UNL     1      -4.181   2.318  -0.998  0.00  0.00    +0.000 OA
BRANCH  13  14
ATOM     14  C   UNL     1      -5.448   1.745  -1.215  0.00  0.00    +0.000 C 
BRANCH  14  15
ATOM     15  C   UNL     1      -6.164   1.573   0.116  0.00  0.00    +0.000 C 
ATOM     16  C   UNL     1      -7.123   0.400   0.184  0.00  0.00    +0.000 C 
ENDBRANCH  14  15
BRANCH  14  17
ATOM     17  C   UNL     1      -6.234   2.648  -2.141  0.00  0.00    +0.000 C 
BRANCH  17  18
ATOM     18  C   UNL     1      -5.906   2.466  -3.586  0.00  0.00    +0.000 C 
BRANCH  18  20
ATOM     19  C   UNL     1      -5.703   0.845  -5.473  0.00  0.00    +0.000 C 
ATOM     20  C   UNL     1      -5.992   1.024  -4.002  0.00  0.00    +0.000 C 
ENDBRANCH  18  20
ENDBRANCH  17  18
ENDBRANCH  14  17
ENDBRANCH  13  14
ENDBRANCH   1  13
TORSDOF 9
ENDMDL
MODEL 4
REMARK VINA RESULT:      -3.5     14.242     15.964
REMARK  Name = orig_f12_ligand
REMARK  12 active torsions:
REMARK  status: ('A' for Active; 'I' for Inactive)
REMARK    1  A    between atoms: C_1  and  C_2
REMARK    2  A    between atoms: C_2  and  C_3
REMARK    3  A    between atoms: C_3  and  C_4
REMARK    4  A    between atoms: C_4  and  C_5
REMARK    5  A    between atoms: C_5  and  C_6
REMARK    6  A    between atoms: C_5  and  O_8
REMARK    7  A    between atoms: C_6  and  C_7
REMARK    8  A    between atoms: O_8  and  C_9
REMARK    9  A    between atoms: C_9  and  C_11
REMARK   10  A    between atoms: C_12  and  C_13
REMARK   11  A    between atoms: C_16  and  O_17
REMARK   12  A    between atoms: O_17  and  C_18
REMARK                            x       y       z     vdW  Elec       q    Type
REMARK                         _______ _______ _______ _____ _____    ______ ____
ROOT
ATOM      1  C   UNL     1      -3.443   1.066  -1.079  0.00  0.00    +0.000 C 
ATOM      2  O   UNL     1      -2.948   1.453  -0.043  0.00  0.00    +0.000 OA
ENDROOT
BRANCH   1   3
ATOM      3  C   UNL     1      -2.681   0.683  -2.274  0.00  0.00    +0.000 C 
ATOM      4  C   UNL     1      -2.692   1.488  -3.343  0.00  0.00    +0.000 C 
BRANCH   4   5
ATOM      5  C   UNL     1      -2.052   1.119  -4.618  0.00  0.00    +0.000 A 
ATOM      6  C   UNL     1      -1.962  -0.188  -5.039  0.00  0.00    +0.000 A 
ATOM      7  C   UNL     1      -1.387  -0.496  -6.262  0.00  0.00    +0.000 A 
ATOM      8  C   UNL     1      -0.891   0.504  -7.055  0.00  0.00    +0.000 A 
ATOM      9  C   UNL     1      -0.979   1.819  -6.641  0.00  0.00    +0.000 A 
ATOM     10  C   UNL     1      -1.549   2.122  -5.410  0.00  0.00    +0.000 A 
BRANCH   8  11
ATOM     11  O   UNL     1      -0.329   0.262  -8.276  0.00  0.00    +0.000 OA
ATOM     12  C   UNL     1      -0.235  -1.073  -8.760  0.00  0.00    +0.000 C 
ENDBRANCH   8  11
ENDBRANCH   4   5
ENDBRANCH   1   3
BRANCH   1  13
ATOM     13  O   UNL     1      -4.754   0.990  -1.266  0.00  0.00    +0.000 OA
BRANCH  13  14
ATOM     14  C   UNL     1      -5.446  -0.148  -0.814  0.00  0.00    +0.000 C 
BRANCH  14  15
ATOM     15  C   UNL     1      -6.644   0.280   0.020  0.00  0.00    +0.000 C 
ATOM     16  C   UNL     1      -6.695   1.758   0.360  0.00  0.00    +0.000 C 
ENDBRANCH  14  15
BRANCH  14  17
ATOM     17  C   UNL     1      -5.883  -0.956  -2.016  0.00  0.00    +0.000 C 
BRANCH  17  18
ATOM     18  C   UNL     1      -6.290  -0.125  -3.189  0.00  0.00    +0.000 C 
BRANCH  18  20
ATOM     19  C   UNL     1      -5.614   0.484  -5.512  0.00  0.00    +0.000 C 
ATOM     20  C   UNL     1      -5.645  -0.598  -4.461  0.00  0.00    +0.000 C 
ENDBRANCH  18  20
ENDBRANCH  17  18
ENDBRANCH  14  17
ENDBRANCH  13  14
ENDBRANCH   1  13
TORSDOF 9
ENDMDL
MODEL 5
REMARK VINA RESULT:      -3.4      1.130      3.096
REMARK  Name = orig_f12_ligand
REMARK  12 active torsions:
REMARK  status: ('A' for Active; 'I' for Inactive)
REMARK    1  A    between atoms: C_1  and  C_2
REMARK    2  A    between atoms: C_2  and  C_3
REMARK    3  A    between atoms: C_3  and  C_4
REMARK    4  A    between atoms: C_4  and  C_5
REMARK    5  A    between atoms: C_5  and  C_6
REMARK    6  A    between atoms: C_5  and  O_8
REMARK    7  A    between atoms: C_6  and  C_7
REMARK    8  A    between atoms: O_8  and  C_9
REMARK    9  A    between atoms: C_9  and  C_11
REMARK   10  A    between atoms: C_12  and  C_13
REMARK   11  A    between atoms: C_16  and  O_17
REMARK   12  A    between atoms: O_17  and  C_18
REMARK                            x       y       z     vdW  Elec       q    Type
REMARK                         _______ _______ _______ _____ _____    ______ ____
ROOT
ATOM      1  C   UNL     1       9.489  -4.907  -0.765  0.00  0.00    +0.000 C 
ATOM      2  O   UNL     1       8.481  -4.366  -0.363  0.00  0.00    +0.000 OA
ENDROOT
BRANCH   1   3
ATOM      3  C   UNL     1       9.555  -5.771  -1.950  0.00  0.00    +0.000 C 
ATOM      4  C   UNL     1       8.727  -6.818  -2.044  0.00  0.00    +0.000 C 
BRANCH   4   5
ATOM      5  C   UNL     1       8.810  -7.798  -3.141  0.00  0.00    +0.000 A 
ATOM      6  C   UNL     1      10.016  -8.239  -3.636  0.00  0.00    +0.000 A 
ATOM      7  C   UNL     1      10.058  -9.190  -4.643  0.00  0.00    +0.000 A 
ATOM      8  C   UNL     1       8.894  -9.688  -5.162  0.00  0.00    +0.000 A 
ATOM      9  C   UNL     1       7.679  -9.253  -4.669  0.00  0.00    +0.000 A 
ATOM     10  C   UNL     1       7.642  -8.293  -3.665  0.00  0.00    +0.000 A 
BRANCH   8  11
ATOM     11  O   UNL     1       8.874 -10.638  -6.143  0.00  0.00    +0.000 OA
ATOM     12  C   UNL     1       8.835 -10.244  -7.509  0.00  0.00    +0.000 C 
ENDBRANCH   8  11
ENDBRANCH   4   5
ENDBRANCH   1   3
BRANCH   1  13
ATOM     13  O   UNL     1      10.654  -4.815  -0.138  0.00  0.00    +0.000 OA
BRANCH  13  14
ATOM     14  C   UNL     1      11.802  -5.361  -0.740  0.00  0.00    +0.000 C 
BRANCH  14  15
ATOM     15  C   UNL     1      12.936  -4.350  -0.688  0.00  0.00    +0.000 C 
ATOM     16  C   UNL     1      12.524  -2.939  -0.312  0.00  0.00    +0.000 C 
ENDBRANCH  14  15
BRANCH  14  17
ATOM     17  C   UNL     1      12.173  -6.632  -0.007  0.00  0.00    +0.000 C 
BRANCH  17  18
ATOM     18  C   UNL     1      13.086  -7.530  -0.775  0.00  0.00    +0.000 C 
BRANCH  18  20
ATOM     19  C   UNL     1      11.186  -9.050  -0.220  0.00  0.00    +0.000 C 
ATOM     20  C   UNL     1      12.525  -8.918  -0.905  0.00  0.00    +0.000 C 
ENDBRANCH  18  20
ENDBRANCH  17  18
ENDBRANCH  14  17
ENDBRANCH  13  14
ENDBRANCH   1  13
TORSDOF 9
ENDMDL
MODEL 6
REMARK VINA RESULT:      -3.4     14.326     15.821
REMARK  Name = orig_f12_ligand
REMARK  12 active torsions:
REMARK  status: ('A' for Active; 'I' for Inactive)
REMARK    1  A    between atoms: C_1  and  C_2
REMARK    2  A    between atoms: C_2  and  C_3
REMARK    3  A    between atoms: C_3  and  C_4
REMARK    4  A    between atoms: C_4  and  C_5
REMARK    5  A    between atoms: C_5  and  C_6
REMARK    6  A    between atoms: C_5  and  O_8
REMARK    7  A    between atoms: C_6  and  C_7
REMARK    8  A    between atoms: O_8  and  C_9
REMARK    9  A    between atoms: C_9  and  C_11
REMARK   10  A    between atoms: C_12  and  C_13
REMARK   11  A    between atoms: C_16  and  O_17
REMARK   12  A    between atoms: O_17  and  C_18
REMARK                            x       y       z     vdW  Elec       q    Type
REMARK                         _______ _______ _______ _____ _____    ______ ____
ROOT
ATOM      1  C   UNL     1      -4.700   0.242  -3.100  0.00  0.00    +0.000 C 
ATOM      2  O   UNL     1      -5.724  -0.407  -3.094  0.00  0.00    +0.000 OA
ENDROOT
BRANCH   1   3
ATOM      3  C   UNL     1      -3.691   0.197  -4.165  0.00  0.00    +0.000 C 
ATOM      4  C   UNL     1      -2.618   0.992  -4.085  0.00  0.00    +0.000 C 
BRANCH   4   5
ATOM      5  C   UNL     1      -1.624   1.092  -5.168  0.00  0.00    +0.000 A 
ATOM      6  C   UNL     1      -1.248   0.000  -5.918  0.00  0.00    +0.000 A 
ATOM      7  C   UNL     1      -0.338   0.137  -6.953  0.00  0.00    +0.000 A 
ATOM      8  C   UNL     1       0.205   1.363  -7.229  0.00  0.00    +0.000 A 
ATOM      9  C   UNL     1      -0.167   2.465  -6.482  0.00  0.00    +0.000 A 
ATOM     10  C   UNL     1      -1.075   2.321  -5.440  0.00  0.00    +0.000 A 
BRANCH   8  11
ATOM     11  O   UNL     1       1.094   1.561  -8.247  0.00  0.00    +0.000 OA
ATOM     12  C   UNL     1       0.829   2.551  -9.234  0.00  0.00    +0.000 C 
ENDBRANCH   8  11
ENDBRANCH   4   5
ENDBRANCH   1   3
BRANCH   1  13
ATOM     13  O   UNL     1      -4.351   1.044  -2.103  0.00  0.00    +0.000 OA
BRANCH  13  14
ATOM     14  C   UNL     1      -5.308   1.922  -1.562  0.00  0.00    +0.000 C 
BRANCH  14  15
ATOM     15  C   UNL     1      -5.129   2.007  -0.054  0.00  0.00    +0.000 C 
ATOM     16  C   UNL     1      -3.931   1.255   0.495  0.00  0.00    +0.000 C 
ENDBRANCH  14  15
BRANCH  14  17
ATOM     17  C   UNL     1      -5.135   3.280  -2.207  0.00  0.00    +0.000 C 
BRANCH  17  18
ATOM     18  C   UNL     1      -3.807   3.910  -1.946  0.00  0.00    +0.000 C 
BRANCH  18  20
ATOM     19  C   UNL     1      -4.138   4.356  -4.378  0.00  0.00    +0.000 C 
ATOM     20  C   UNL     1      -3.223   4.521  -3.189  0.00  0.00    +0.000 C 
ENDBRANCH  18  20
ENDBRANCH  17  18
ENDBRANCH  14  17
ENDBRANCH  13  14
ENDBRANCH   1  13
TORSDOF 9
ENDMDL
MODEL 7
REMARK VINA RESULT:      -3.4     14.560     16.217
REMARK  Name = orig_f12_ligand
REMARK  12 active torsions:
REMARK  status: ('A' for Active; 'I' for Inactive)
REMARK    1  A    between atoms: C_1  and  C_2
REMARK    2  A    between atoms: C_2  and  C_3
REMARK    3  A    between atoms: C_3  and  C_4
REMARK    4  A    between atoms: C_4  and  C_5
REMARK    5  A    between atoms: C_5  and  C_6
REMARK    6  A    between atoms: C_5  and  O_8
REMARK    7  A    between atoms: C_6  and  C_7
REMARK    8  A    between atoms: O_8  and  C_9
REMARK    9  A    between atoms: C_9  and  C_11
REMARK   10  A    between atoms: C_12  and  C_13
REMARK   11  A    between atoms: C_16  and  O_17
REMARK   12  A    between atoms: O_17  and  C_18
REMARK                            x       y       z     vdW  Elec       q    Type
REMARK                         _______ _______ _______ _____ _____    ______ ____
ROOT
ATOM      1  C   UNL     1      -3.909   3.520  -1.941  0.00  0.00    +0.000 C 
ATOM      2  O   UNL     1      -3.610   4.642  -1.590  0.00  0.00    +0.000 OA
ENDROOT
BRANCH   1   3
ATOM      3  C   UNL     1      -3.041   2.635  -2.726  0.00  0.00    +0.000 C 
ATOM      4  C   UNL     1      -2.736   2.966  -3.987  0.00  0.00    +0.000 C 
BRANCH   4   5
ATOM      5  C   UNL     1      -1.972   2.075  -4.876  0.00  0.00    +0.000 A 
ATOM      6  C   UNL     1      -0.940   2.537  -5.662  0.00  0.00    +0.000 A 
ATOM      7  C   UNL     1      -0.217   1.664  -6.459  0.00  0.00    +0.000 A 
ATOM      8  C   UNL     1      -0.535   0.333  -6.479  0.00  0.00    +0.000 A 
ATOM      9  C   UNL     1      -1.568  -0.140  -5.692  0.00  0.00    +0.000 A 
ATOM     10  C   UNL     1      -2.295   0.740  -4.900  0.00  0.00    +0.000 A 
BRANCH   8  11
ATOM     11  O   UNL     1       0.153  -0.575  -7.232  0.00  0.00    +0.000 OA
ATOM     12  C   UNL     1      -0.553  -1.593  -7.932  0.00  0.00    +0.000 C 
ENDBRANCH   8  11
ENDBRANCH   4   5
ENDBRANCH   1   3
BRANCH   1  13
ATOM     13  O   UNL     1      -5.093   2.980  -1.690  0.00  0.00    +0.000 OA
BRANCH  13  14
ATOM     14  C   UNL     1      -5.179   1.594  -1.456  0.00  0.00    +0.000 C 
BRANCH  14  15
ATOM     15  C   UNL     1      -5.193   1.329   0.041  0.00  0.00    +0.000 C 
ATOM     16  C   UNL     1      -3.826   1.267   0.696  0.00  0.00    +0.000 C 
ENDBRANCH  14  15
BRANCH  14  17
ATOM     17  C   UNL     1      -6.439   1.072  -2.111  0.00  0.00    +0.000 C 
BRANCH  17  18
ATOM     18  C   UNL     1      -6.633   1.546  -3.514  0.00  0.00    +0.000 C 
BRANCH  18  20
ATOM     19  C   UNL     1      -5.808   1.295  -5.856  0.00  0.00    +0.000 C 
ATOM     20  C   UNL     1      -5.974   0.633  -4.509  0.00  0.00    +0.000 C 
ENDBRANCH  18  20
ENDBRANCH  17  18
ENDBRANCH  14  17
ENDBRANCH  13  14
ENDBRANCH   1  13
TORSDOF 9
ENDMDL
MODEL 8
REMARK VINA RESULT:      -3.3     14.801     16.102
REMARK  Name = orig_f12_ligand
REMARK  12 active torsions:
REMARK  status: ('A' for Active; 'I' for Inactive)
REMARK    1  A    between atoms: C_1  and  C_2
REMARK    2  A    between atoms: C_2  and  C_3
REMARK    3  A    between atoms: C_3  and  C_4
REMARK    4  A    between atoms: C_4  and  C_5
REMARK    5  A    between atoms: C_5  and  C_6
REMARK    6  A    between atoms: C_5  and  O_8
REMARK    7  A    between atoms: C_6  and  C_7
REMARK    8  A    between atoms: O_8  and  C_9
REMARK    9  A    between atoms: C_9  and  C_11
REMARK   10  A    between atoms: C_12  and  C_13
REMARK   11  A    between atoms: C_16  and  O_17
REMARK   12  A    between atoms: O_17  and  C_18
REMARK                            x       y       z     vdW  Elec       q    Type
REMARK                         _______ _______ _______ _____ _____    ______ ____
ROOT
ATOM      1  C   UNL     1      -2.532   2.233  -3.605  0.00  0.00    +0.000 C 
ATOM      2  O   UNL     1      -1.573   2.754  -4.131  0.00  0.00    +0.000 OA
ENDROOT
BRANCH   1   3
ATOM      3  C   UNL     1      -3.024   0.885  -3.918  0.00  0.00    +0.000 C 
ATOM      4  C   UNL     1      -3.250   0.551  -5.193  0.00  0.00    +0.000 C 
BRANCH   4   5
ATOM      5  C   UNL     1      -3.854  -0.736  -5.579  0.00  0.00    +0.000 A 
ATOM      6  C   UNL     1      -5.190  -1.004  -5.384  0.00  0.00    +0.000 A 
ATOM      7  C   UNL     1      -5.733  -2.211  -5.794  0.00  0.00    +0.000 A 
ATOM      8  C   UNL     1      -4.937  -3.154  -6.386  0.00  0.00    +0.000 A 
ATOM      9  C   UNL     1      -3.594  -2.893  -6.587  0.00  0.00    +0.000 A 
ATOM     10  C   UNL     1      -3.053  -1.684  -6.167  0.00  0.00    +0.000 A 
BRANCH   8  11
ATOM     11  O   UNL     1      -5.420  -4.353  -6.824  0.00  0.00    +0.000 OA
ATOM     12  C   UNL     1      -6.025  -5.252  -5.902  0.00  0.00    +0.000 C 
ENDBRANCH   8  11
ENDBRANCH   4   5
ENDBRANCH   1   3
BRANCH   1  13
ATOM     13  O   UNL     1      -3.286   2.854  -2.707  0.00  0.00    +0.000 OA
BRANCH  13  14
ATOM     14  C   UNL     1      -4.017   2.089  -1.779  0.00  0.00    +0.000 C 
BRANCH  14  15
ATOM     15  C   UNL     1      -3.478   2.333  -0.378  0.00  0.00    +0.000 C 
ATOM     16  C   UNL     1      -3.771   1.234   0.625  0.00  0.00    +0.000 C 
ENDBRANCH  14  15
BRANCH  14  17
ATOM     17  C   UNL     1      -5.476   2.480  -1.876  0.00  0.00    +0.000 C 
BRANCH  17  18
ATOM     18  C   UNL     1      -6.340   1.442  -2.514  0.00  0.00    +0.000 C 
BRANCH  18  20
ATOM     19  C   UNL     1      -6.000  -0.942  -1.859  0.00  0.00    +0.000 C 
ATOM     20  C   UNL     1      -6.712   0.353  -1.548  0.00  0.00    +0.000 C 
ENDBRANCH  18  20
ENDBRANCH  17  18
ENDBRANCH  14  17
ENDBRANCH  13  14
ENDBRANCH   1  13
TORSDOF 9
ENDMDL
MODEL 9
REMARK VINA RESULT:      -3.3     13.699     15.162
REMARK  Name = orig_f12_ligand
REMARK  12 active torsions:
REMARK  status: ('A' for Active; 'I' for Inactive)
REMARK    1  A    between atoms: C_1  and  C_2
REMARK    2  A    between atoms: C_2  and  C_3
REMARK    3  A    between atoms: C_3  and  C_4
REMARK    4  A    between atoms: C_4  and  C_5
REMARK    5  A    between atoms: C_5  and  C_6
REMARK    6  A    between atoms: C_5  and  O_8
REMARK    7  A    between atoms: C_6  and  C_7
REMARK    8  A    between atoms: O_8  and  C_9
REMARK    9  A    between atoms: C_9  and  C_11
REMARK   10  A    between atoms: C_12  and  C_13
REMARK   11  A    between atoms: C_16  and  O_17
REMARK   12  A    between atoms: O_17  and  C_18
REMARK                            x       y       z     vdW  Elec       q    Type
REMARK                         _______ _______ _______ _____ _____    ______ ____
ROOT
ATOM      1  C   UNL     1      -2.419   2.497  -4.029  0.00  0.00    +0.000 C 
ATOM      2  O   UNL     1      -1.943   3.597  -3.853  0.00  0.00    +0.000 OA
ENDROOT
BRANCH   1   3
ATOM      3  C   UNL     1      -2.176   1.664  -5.213  0.00  0.00    +0.000 C 
ATOM      4  C   UNL     1      -1.978   0.349  -5.059  0.00  0.00    +0.000 C 
BRANCH   4   5
ATOM      5  C   UNL     1      -1.611  -0.532  -6.181  0.00  0.00    +0.000 A 
ATOM      6  C   UNL     1      -0.397  -0.432  -6.823  0.00  0.00    +0.000 A 
ATOM      7  C   UNL     1      -0.069  -1.302  -7.850  0.00  0.00    +0.000 A 
ATOM      8  C   UNL     1      -0.961  -2.263  -8.242  0.00  0.00    +0.000 A 
ATOM      9  C   UNL     1      -2.181  -2.373  -7.602  0.00  0.00    +0.000 A 
ATOM     10  C   UNL     1      -2.508  -1.493  -6.578  0.00  0.00    +0.000 A 
BRANCH   8  11
ATOM     11  O   UNL     1      -0.686  -3.159  -9.236  0.00  0.00    +0.000 OA
ATOM     12  C   UNL     1       0.506  -3.023 -10.001  0.00  0.00    +0.000 C 
ENDBRANCH   8  11
ENDBRANCH   4   5
ENDBRANCH   1   3
BRANCH   1  13
ATOM     13  O   UNL     1      -3.266   1.935  -3.177  0.00  0.00    +0.000 OA
BRANCH  13  14
ATOM     14  C   UNL     1      -4.571   2.450  -3.067  0.00  0.00    +0.000 C 
BRANCH  14  15
ATOM     15  C   UNL     1      -5.575   1.397  -3.509  0.00  0.00    +0.000 C 
ATOM     16  C   UNL     1      -5.180  -0.036  -3.206  0.00  0.00    +0.000 C 
ENDBRANCH  14  15
BRANCH  14  17
ATOM     17  C   UNL     1      -4.809   2.857  -1.629  0.00  0.00    +0.000 C 
BRANCH  17  18
ATOM     18  C   UNL     1      -3.785   2.336  -0.675  0.00  0.00    +0.000 C 
BRANCH  18  20
ATOM     19  C   UNL     1      -5.853   1.338   0.303  0.00  0.00    +0.000 C 
ATOM     20  C   UNL     1      -4.347   1.266   0.218  0.00  0.00    +0.000 C 
ENDBRANCH  18  20
ENDBRANCH  17  18
ENDBRANCH  14  17
ENDBRANCH  13  14
ENDBRANCH   1  13
TORSDOF 9
ENDMDL
