REMARK  Name = ox2_shuffle_ligand
REMARK  5 active torsions:
REMARK  status: ('A' for Active; 'I' for Inactive)
REMARK    1  A    between atoms: C_1  and  O_2
REMARK    2  A    between atoms: O_2  and  C_3
REMARK    3  A    between atoms: C_6  and  C_7
REMARK    4  A    between atoms: C_7  and  C_9
REMARK    5  A    between atoms: C_15  and  O_16
REMARK                            x       y       z     vdW  Elec       q    Type
REMARK                         _______ _______ _______ _____ _____    ______ ____
ROOT
ATOM      1  C   UNL     1       3.902  -7.886   1.964  0.00  0.00    +0.000 A 
ATOM      2  C   UNL     1       2.866  -8.790   1.786  0.00  0.00    +0.000 A 
ATOM      3  C   UNL     1       1.692  -8.398   1.178  0.00  0.00    +0.000 A 
ATOM      4  C   UNL     1       1.531  -7.089   0.743  0.00  0.00    +0.000 A 
ATOM      5  C   UNL     1       2.572  -6.168   0.930  0.00  0.00    +0.000 A 
ATOM      6  C   UNL     1       3.751  -6.580   1.538  0.00  0.00    +0.000 A 
ENDROOT
BRANCH   1   8
ATOM      7  C   UNL     1       6.269  -7.697   2.349  0.00  0.00    +0.000 C 
ATOM      8  O   UNL     1       5.044  -8.346   2.571  0.00  0.00    +0.000 OA
ENDBRANCH   1   8
BRANCH   4   9
ATOM      9  C   UNL     1       0.249  -6.657   0.081  0.00  0.00    +0.000 C 
ATOM     10  O   UNL     1       0.136  -5.520  -0.318  0.00  0.00    +0.000 OA
BRANCH   9  11
ATOM     11  C   UNL     1      -0.871  -7.610  -0.066  0.00  0.00    +0.000 A 
ATOM     12  C   UNL     1      -0.788  -8.669  -0.962  0.00  0.00    +0.000 A 
ATOM     13  C   UNL     1      -1.855  -9.545  -1.096  0.00  0.00    +0.000 A 
ATOM     14  C   UNL     1      -3.003  -9.369  -0.327  0.00  0.00    +0.000 A 
ATOM     15  C   UNL     1      -3.093  -8.302   0.559  0.00  0.00    +0.000 A 
ATOM     16  C   UNL     1      -2.028  -7.407   0.684  0.00  0.00    +0.000 A 
ENDBRANCH   9  11
ENDBRANCH   4   9
BRANCH   5  17
ATOM     17  O   UNL     1       2.421  -4.881   0.509  0.00  0.00    +0.000 OA
ATOM     18  H   UNL     1       3.154  -4.229   0.639  0.00  0.00    +0.000 HD
ENDBRANCH   5  17
TORSDOF 4
