MODEL 1
REMARK VINA RESULT:      -5.5      0.000      0.000
REMARK  Name = ox2_shuffle_ligand
REMARK  5 active torsions:
REMARK  status: ('A' for Active; 'I' for Inactive)
REMARK    1  A    between atoms: C_1  and  O_2
REMARK    2  A    between atoms: O_2  and  C_3
REMARK    3  A    between atoms: C_6  and  C_7
REMARK    4  A    between atoms: C_7  and  C_9
REMARK    5  A    between atoms: C_15  and  O_16
REMARK                            x       y       z     vdW  Elec       q    Type
REMARK                         _______ _______ _______ _____ _____    ______ ____
ROOT
ATOM      1  C   UNL     1      -1.743  -6.996   0.606  0.00  0.00    +0.000 A 
ATOM      2  C   UNL     1      -1.058  -8.201   0.590  0.00  0.00    +0.000 A 
ATOM      3  C   UNL     1       0.273  -8.245   0.233  0.00  0.00    +0.000 A 
ATOM      4  C   UNL     1       0.942  -7.080  -0.122  0.00  0.00    +0.000 A 
ATOM      5  C   UNL     1       0.251  -5.860  -0.117  0.00  0.00    +0.000 A 
ATOM      6  C   UNL     1      -1.088  -5.832   0.251  0.00  0.00    +0.000 A 
ENDROOT
BRANCH   1   8
ATOM      7  C   UNL     1      -3.412  -7.093   2.336  0.00  0.00    +0.000 C 
ATOM      8  O   UNL     1      -3.064  -7.025   0.977  0.00  0.00    +0.000 OA
ENDBRANCH   1   8
BRANCH   4   9
ATOM      9  C   UNL     1       2.395  -7.125  -0.515  0.00  0.00    +0.000 C 
ATOM     10  O   UNL     1       2.702  -7.476  -1.632  0.00  0.00    +0.000 OA
BRANCH   9  11
ATOM     11  C   UNL     1       3.442  -6.758   0.462  0.00  0.00    +0.000 A 
ATOM     12  C   UNL     1       4.293  -5.686   0.221  0.00  0.00    +0.000 A 
ATOM     13  C   UNL     1       5.278  -5.366   1.143  0.00  0.00    +0.000 A 
ATOM     14  C   UNL     1       5.409  -6.112   2.312  0.00  0.00    +0.000 A 
ATOM     15  C   UNL     1       4.568  -7.193   2.548  0.00  0.00    +0.000 A 
ATOM     16  C   UNL     1       3.586  -7.530   1.613  0.00  0.00    +0.000 A 
ENDBRANCH   9  11
ENDBRANCH   4   9
BRANCH   5  17
ATOM     17  O   UNL     1       0.899  -4.714  -0.467  0.00  0.00    +0.000 OA
ATOM     18  H   UNL     1       0.799  -4.348  -1.381  0.00  0.00    +0.000 HD
ENDBRANCH   5  17
TORSDOF 4
ENDMDL
MODEL 2
REMARK VINA RESULT:      -5.5      2.270      3.073
REMARK  Name = ox2_shuffle_ligand
REMARK  5 active torsions:
REMARK  status: ('A' for Active; 'I' for Inactive)
REMARK    1  A    between atoms: C_1  and  O_2
REMARK    2  A    between atoms: O_2  and  C_3
REMARK    3  A    between atoms: C_6  and  C_7
REMARK    4  A    between atoms: C_7  and  C_9
REMARK    5  A    between atoms: C_15  and  O_16
REMARK                            x       y       z     vdW  Elec       q    Type
REMARK                         _______ _______ _______ _____ _____    ______ ____
ROOT
ATOM      1  C   UNL     1       1.079  -7.197   0.583  0.00  0.00    +0.000 A 
ATOM      2  C   UNL     1       1.726  -8.419   0.684  0.00  0.00    +0.000 A 
ATOM      3  C   UNL     1       3.054  -8.539   0.332  0.00  0.00    +0.000 A 
ATOM      4  C   UNL     1       3.758  -7.437  -0.136  0.00  0.00    +0.000 A 
ATOM      5  C   UNL     1       3.105  -6.201  -0.251  0.00  0.00    +0.000 A 
ATOM      6  C   UNL     1       1.769  -6.095   0.115  0.00  0.00    +0.000 A 
ENDROOT
BRANCH   1   8
ATOM      7  C   UNL     1      -1.093  -6.179   0.403  0.00  0.00    +0.000 C 
ATOM      8  O   UNL     1      -0.241  -7.148   0.956  0.00  0.00    +0.000 OA
ENDBRANCH   1   8
BRANCH   4   9
ATOM      9  C   UNL     1       5.207  -7.566  -0.524  0.00  0.00    +0.000 C 
ATOM     10  O   UNL     1       5.507  -7.665  -1.693  0.00  0.00    +0.000 OA
BRANCH   9  11
ATOM     11  C   UNL     1       6.257  -7.588   0.516  0.00  0.00    +0.000 A 
ATOM     12  C   UNL     1       6.059  -6.957   1.738  0.00  0.00    +0.000 A 
ATOM     13  C   UNL     1       7.061  -6.977   2.696  0.00  0.00    +0.000 A 
ATOM     14  C   UNL     1       8.260  -7.637   2.437  0.00  0.00    +0.000 A 
ATOM     15  C   UNL     1       8.465  -8.257   1.210  0.00  0.00    +0.000 A 
ATOM     16  C   UNL     1       7.466  -8.224   0.236  0.00  0.00    +0.000 A 
ENDBRANCH   9  11
ENDBRANCH   4   9
BRANCH   5  17
ATOM     17  O   UNL     1       3.787  -5.116  -0.712  0.00  0.00    +0.000 OA
ATOM     18  H   UNL     1       3.335  -4.237  -0.774  0.00  0.00    +0.000 HD
ENDBRANCH   5  17
TORSDOF 4
ENDMDL
MODEL 3
REMARK VINA RESULT:      -5.2      1.796      5.881
REMARK  Name = ox2_shuffle_ligand
REMARK  5 active torsions:
REMARK  status: ('A' for Active; 'I' for Inactive)
REMARK    1  A    between atoms: C_1  and  O_2
REMARK    2  A    between atoms: O_2  and  C_3
REMARK    3  A    between atoms: C_6  and  C_7
REMARK    4  A    between atoms: C_7  and  C_9
REMARK    5  A    between atoms: C_15  and  O_16
REMARK                            x       y       z     vdW  Elec       q    Type
REMARK                         _______ _______ _______ _____ _____    ______ ____
ROOT
ATOM      1  C   UNL     1       5.553  -6.821   1.859  0.00  0.00    +0.000 A 
ATOM      2  C   UNL     1       4.804  -7.979   1.996  0.00  0.00    +0.000 A 
ATOM      3  C   UNL     1       3.681  -8.181   1.222  0.00  0.00    +0.000 A 
ATOM      4  C   UNL     1       3.283  -7.222   0.299  0.00  0.00    +0.000 A 
ATOM      5  C   UNL     1       4.032  -6.044   0.164  0.00  0.00    +0.000 A 
ATOM      6  C   UNL     1       5.164  -5.858   0.947  0.00  0.00    +0.000 A 
ENDROOT
BRANCH   1   8
ATOM      7  C   UNL     1       7.805  -7.464   2.409  0.00  0.00    +0.000 C 
ATOM      8  O   UNL     1       6.662  -6.688   2.658  0.00  0.00    +0.000 OA
ENDBRANCH   1   8
BRANCH   4   9
ATOM      9  C   UNL     1       2.056  -7.439  -0.546  0.00  0.00    +0.000 C 
ATOM     10  O   UNL     1       2.173  -7.871  -1.670  0.00  0.00    +0.000 OA
BRANCH   9  11
ATOM     11  C   UNL     1       0.717  -7.110  -0.013  0.00  0.00    +0.000 A 
ATOM     12  C   UNL     1      -0.025  -8.061   0.676  0.00  0.00    +0.000 A 
ATOM     13  C   UNL     1      -1.286  -7.738   1.157  0.00  0.00    +0.000 A 
ATOM     14  C   UNL     1      -1.802  -6.459   0.957  0.00  0.00    +0.000 A 
ATOM     15  C   UNL     1      -1.067  -5.512   0.255  0.00  0.00    +0.000 A 
ATOM     16  C   UNL     1       0.195  -5.838  -0.246  0.00  0.00    +0.000 A 
ENDBRANCH   9  11
ENDBRANCH   4   9
BRANCH   5  17
ATOM     17  O   UNL     1       3.647  -5.096  -0.736  0.00  0.00    +0.000 OA
ATOM     18  H   UNL     1       3.056  -4.355  -0.451  0.00  0.00    +0.000 HD
ENDBRANCH   5  17
TORSDOF 4
ENDMDL
MODEL 4
REMARK VINA RESULT:      -5.1      2.603      3.774
REMARK  Name = ox2_shuffle_ligand
REMARK  5 active torsions:
REMARK  status: ('A' for Active; 'I' for Inactive)
REMARK    1  A    between atoms: C_1  and  O_2
REMARK    2  A    between atoms: O_2  and  C_3
REMARK    3  A    between atoms: C_6  and  C_7
REMARK    4  A    between atoms: C_7  and  C_9
REMARK    5  A    between atoms: C_15  and  O_16
REMARK                            x       y       z     vdW  Elec       q    Type
REMARK                         _______ _______ _______ _____ _____    ______ ____
ROOT
ATOM      1  C   UNL     1       1.474  -8.092   0.065  0.00  0.00    +0.000 A 
ATOM      2  C   UNL     1       2.133  -8.680   1.134  0.00  0.00    +0.000 A 
ATOM      3  C   UNL     1       3.301  -8.134   1.622  0.00  0.00    +0.000 A 
ATOM      4  C   UNL     1       3.836  -6.990   1.042  0.00  0.00    +0.000 A 
ATOM      5  C   UNL     1       3.178  -6.397  -0.045  0.00  0.00    +0.000 A 
ATOM      6  C   UNL     1       1.999  -6.956  -0.521  0.00  0.00    +0.000 A 
ENDROOT
BRANCH   1   8
ATOM      7  C   UNL     1       0.117  -8.938  -1.732  0.00  0.00    +0.000 C 
ATOM      8  O   UNL     1       0.313  -8.686  -0.365  0.00  0.00    +0.000 OA
ENDBRANCH   1   8
BRANCH   4   9
ATOM      9  C   UNL     1       5.113  -6.392   1.571  0.00  0.00    +0.000 C 
ATOM     10  O   UNL     1       5.085  -5.316   2.124  0.00  0.00    +0.000 OA
BRANCH   9  11
ATOM     11  C   UNL     1       6.395  -7.107   1.403  0.00  0.00    +0.000 A 
ATOM     12  C   UNL     1       6.736  -7.674   0.180  0.00  0.00    +0.000 A 
ATOM     13  C   UNL     1       7.938  -8.353   0.045  0.00  0.00    +0.000 A 
ATOM     14  C   UNL     1       8.806  -8.457   1.129  0.00  0.00    +0.000 A 
ATOM     15  C   UNL     1       8.460  -7.903   2.356  0.00  0.00    +0.000 A 
ATOM     16  C   UNL     1       7.243  -7.234   2.502  0.00  0.00    +0.000 A 
ENDBRANCH   9  11
ENDBRANCH   4   9
BRANCH   5  17
ATOM     17  O   UNL     1       3.698  -5.277  -0.621  0.00  0.00    +0.000 OA
ATOM     18  H   UNL     1       4.415  -5.356  -1.299  0.00  0.00    +0.000 HD
ENDBRANCH   5  17
TORSDOF 4
ENDMDL
MODEL 5
REMARK VINA RESULT:      -4.9      1.796      2.330
REMARK  Name = ox2_shuffle_ligand
REMARK  5 active torsions:
REMARK  status: ('A' for Active; 'I' for Inactive)
REMARK    1  A    between atoms: C_1  and  O_2
REMARK    2  A    between atoms: O_2  and  C_3
REMARK    3  A    between atoms: C_6  and  C_7
REMARK    4  A    between atoms: C_7  and  C_9
REMARK    5  A    between atoms: C_15  and  O_16
REMARK                            x       y       z     vdW  Elec       q    Type
REMARK                         _______ _______ _______ _____ _____    ______ ____
ROOT
ATOM      1  C   UNL     1       0.301  -8.432   0.424  0.00  0.00    +0.000 A 
ATOM      2  C   UNL     1       1.520  -9.090   0.477  0.00  0.00    +0.000 A 
ATOM      3  C   UNL     1       2.700  -8.386   0.368  0.00  0.00    +0.000 A 
ATOM      4  C   UNL     1       2.681  -7.008   0.197  0.00  0.00    +0.000 A 
ATOM      5  C   UNL     1       1.450  -6.338   0.132  0.00  0.00    +0.000 A 
ATOM      6  C   UNL     1       0.270  -7.061   0.250  0.00  0.00    +0.000 A 
ENDROOT
BRANCH   1   8
ATOM      7  C   UNL     1      -2.068  -8.582   0.815  0.00  0.00    +0.000 C 
ATOM      8  O   UNL     1      -0.834  -9.195   0.545  0.00  0.00    +0.000 OA
ENDBRANCH   1   8
BRANCH   4   9
ATOM      9  C   UNL     1       3.969  -6.236   0.075  0.00  0.00    +0.000 C 
ATOM     10  O   UNL     1       3.990  -5.204  -0.557  0.00  0.00    +0.000 OA
BRANCH   9  11
ATOM     11  C   UNL     1       5.204  -6.743   0.710  0.00  0.00    +0.000 A 
ATOM     12  C   UNL     1       6.150  -7.436  -0.034  0.00  0.00    +0.000 A 
ATOM     13  C   UNL     1       7.296  -7.916   0.582  0.00  0.00    +0.000 A 
ATOM     14  C   UNL     1       7.502  -7.695   1.942  0.00  0.00    +0.000 A 
ATOM     15  C   UNL     1       6.550  -7.013   2.690  0.00  0.00    +0.000 A 
ATOM     16  C   UNL     1       5.386  -6.544   2.077  0.00  0.00    +0.000 A 
ENDBRANCH   9  11
ENDBRANCH   4   9
BRANCH   5  17
ATOM     17  O   UNL     1       1.423  -4.987  -0.039  0.00  0.00    +0.000 OA
ATOM     18  H   UNL     1       1.466  -4.388   0.748  0.00  0.00    +0.000 HD
ENDBRANCH   5  17
TORSDOF 4
ENDMDL
MODEL 6
REMARK VINA RESULT:      -4.8      2.067      5.900
REMARK  Name = ox2_shuffle_ligand
REMARK  5 active torsions:
REMARK  status: ('A' for Active; 'I' for Inactive)
REMARK    1  A    between atoms: C_1  and  O_2
REMARK    2  A    between atoms: O_2  and  C_3
REMARK    3  A    between atoms: C_6  and  C_7
REMARK    4  A    between atoms: C_7  and  C_9
REMARK    5  A    between atoms: C_15  and  O_16
REMARK                            x       y       z     vdW  Elec       q    Type
REMARK                         _______ _______ _______ _____ _____    ______ ____
ROOT
ATOM      1  C   UNL     1       4.971  -7.406   2.034  0.00  0.00    +0.000 A 
ATOM      2  C   UNL     1       3.771  -7.983   2.421  0.00  0.00    +0.000 A 
ATOM      3  C   UNL     1       2.592  -7.628   1.799  0.00  0.00    +0.000 A 
ATOM      4  C   UNL     1       2.593  -6.682   0.783  0.00  0.00    +0.000 A 
ATOM      5  C   UNL     1       3.803  -6.088   0.395  0.00  0.00    +0.000 A 
ATOM      6  C   UNL     1       4.983  -6.460   1.026  0.00  0.00    +0.000 A 
ENDROOT
BRANCH   1   8
ATOM      7  C   UNL     1       7.367  -7.605   2.109  0.00  0.00    +0.000 C 
ATOM      8  O   UNL     1       6.107  -7.810   2.692  0.00  0.00    +0.000 OA
ENDBRANCH   1   8
BRANCH   4   9
ATOM      9  C   UNL     1       1.307  -6.291   0.104  0.00  0.00    +0.000 C 
ATOM     10  O   UNL     1       0.933  -5.140   0.150  0.00  0.00    +0.000 OA
BRANCH   9  11
ATOM     11  C   UNL     1       0.497  -7.307  -0.600  0.00  0.00    +0.000 A 
ATOM     12  C   UNL     1      -0.886  -7.329  -0.466  0.00  0.00    +0.000 A 
ATOM     13  C   UNL     1      -1.628  -8.299  -1.124  0.00  0.00    +0.000 A 
ATOM     14  C   UNL     1      -0.988  -9.243  -1.924  0.00  0.00    +0.000 A 
ATOM     15  C   UNL     1       0.396  -9.231  -2.047  0.00  0.00    +0.000 A 
ATOM     16  C   UNL     1       1.148  -8.267  -1.372  0.00  0.00    +0.000 A 
ENDBRANCH   9  11
ENDBRANCH   4   9
BRANCH   5  17
ATOM     17  O   UNL     1       3.812  -5.156  -0.599  0.00  0.00    +0.000 OA
ATOM     18  H   UNL     1       2.985  -4.972  -1.111  0.00  0.00    +0.000 HD
ENDBRANCH   5  17
TORSDOF 4
ENDMDL
MODEL 7
REMARK VINA RESULT:      -4.8      1.475      2.317
REMARK  Name = ox2_shuffle_ligand
REMARK  5 active torsions:
REMARK  status: ('A' for Active; 'I' for Inactive)
REMARK    1  A    between atoms: C_1  and  O_2
REMARK    2  A    between atoms: O_2  and  C_3
REMARK    3  A    between atoms: C_6  and  C_7
REMARK    4  A    between atoms: C_7  and  C_9
REMARK    5  A    between atoms: C_15  and  O_16
REMARK                            x       y       z     vdW  Elec       q    Type
REMARK                         _______ _______ _______ _____ _____    ______ ____
ROOT
ATOM      1  C   UNL     1      -1.323  -7.741  -0.489  0.00  0.00    +0.000 A 
ATOM      2  C   UNL     1      -0.624  -6.610  -0.094  0.00  0.00    +0.000 A 
ATOM      3  C   UNL     1       0.748  -6.556  -0.220  0.00  0.00    +0.000 A 
ATOM      4  C   UNL     1       1.448  -7.637  -0.739  0.00  0.00    +0.000 A 
ATOM      5  C   UNL     1       0.747  -8.787  -1.130  0.00  0.00    +0.000 A 
ATOM      6  C   UNL     1      -0.636  -8.824  -1.003  0.00  0.00    +0.000 A 
ENDROOT
BRANCH   1   8
ATOM      7  C   UNL     1      -3.311  -8.628   0.534  0.00  0.00    +0.000 C 
ATOM      8  O   UNL     1      -2.687  -7.724  -0.341  0.00  0.00    +0.000 OA
ENDBRANCH   1   8
BRANCH   4   9
ATOM      9  C   UNL     1       2.947  -7.582  -0.875  0.00  0.00    +0.000 C 
ATOM     10  O   UNL     1       3.467  -7.954  -1.902  0.00  0.00    +0.000 OA
BRANCH   9  11
ATOM     11  C   UNL     1       3.779  -7.091   0.243  0.00  0.00    +0.000 A 
ATOM     12  C   UNL     1       3.901  -7.831   1.413  0.00  0.00    +0.000 A 
ATOM     13  C   UNL     1       4.676  -7.347   2.457  0.00  0.00    +0.000 A 
ATOM     14  C   UNL     1       5.337  -6.128   2.329  0.00  0.00    +0.000 A 
ATOM     15  C   UNL     1       5.203  -5.380   1.165  0.00  0.00    +0.000 A 
ATOM     16  C   UNL     1       4.410  -5.855   0.118  0.00  0.00    +0.000 A 
ENDBRANCH   9  11
ENDBRANCH   4   9
BRANCH   5  17
ATOM     17  O   UNL     1       1.426  -9.854  -1.637  0.00  0.00    +0.000 OA
ATOM     18  H   UNL     1       1.826 -10.522  -1.026  0.00  0.00    +0.000 HD
ENDBRANCH   5  17
TORSDOF 4
ENDMDL
MODEL 8
REMARK VINA RESULT:      -4.8      2.057      3.160
REMARK  Name = ox2_shuffle_ligand
REMARK  5 active torsions:
REMARK  status: ('A' for Active; 'I' for Inactive)
REMARK    1  A    between atoms: C_1  and  O_2
REMARK    2  A    between atoms: O_2  and  C_3
REMARK    3  A    between atoms: C_6  and  C_7
REMARK    4  A    between atoms: C_7  and  C_9
REMARK    5  A    between atoms: C_15  and  O_16
REMARK                            x       y       z     vdW  Elec       q    Type
REMARK                         _______ _______ _______ _____ _____    ______ ____
ROOT
ATOM      1  C   UNL     1       0.719  -6.205  -0.265  0.00  0.00    +0.000 A 
ATOM      2  C   UNL     1       1.787  -5.342  -0.067  0.00  0.00    +0.000 A 
ATOM      3  C   UNL     1       3.083  -5.791  -0.208  0.00  0.00    +0.000 A 
ATOM      4  C   UNL     1       3.335  -7.115  -0.542  0.00  0.00    +0.000 A 
ATOM      5  C   UNL     1       2.258  -7.994  -0.733  0.00  0.00    +0.000 A 
ATOM      6  C   UNL     1       0.958  -7.525  -0.594  0.00  0.00    +0.000 A 
ENDROOT
BRANCH   1   8
ATOM      7  C   UNL     1      -0.779  -4.324  -0.343  0.00  0.00    +0.000 C 
ATOM      8  O   UNL     1      -0.544  -5.690  -0.115  0.00  0.00    +0.000 OA
ENDBRANCH   1   8
BRANCH   4   9
ATOM      9  C   UNL     1       4.750  -7.608  -0.693  0.00  0.00    +0.000 C 
ATOM     10  O   UNL     1       5.149  -7.955  -1.782  0.00  0.00    +0.000 OA
BRANCH   9  11
ATOM     11  C   UNL     1       5.641  -7.685   0.483  0.00  0.00    +0.000 A 
ATOM     12  C   UNL     1       7.015  -7.823   0.323  0.00  0.00    +0.000 A 
ATOM     13  C   UNL     1       7.834  -7.907   1.439  0.00  0.00    +0.000 A 
ATOM     14  C   UNL     1       7.282  -7.844   2.716  0.00  0.00    +0.000 A 
ATOM     15  C   UNL     1       5.907  -7.720   2.877  0.00  0.00    +0.000 A 
ATOM     16  C   UNL     1       5.077  -7.653   1.756  0.00  0.00    +0.000 A 
ENDBRANCH   9  11
ENDBRANCH   4   9
BRANCH   5  17
ATOM     17  O   UNL     1       2.497  -9.295  -1.058  0.00  0.00    +0.000 OA
ATOM     18  H   UNL     1       1.884 -10.004  -0.740  0.00  0.00    +0.000 HD
ENDBRANCH   5  17
TORSDOF 4
ENDMDL
MODEL 9
REMARK VINA RESULT:      -4.7      2.140      3.260
REMARK  Name = ox2_shuffle_ligand
REMARK  5 active torsions:
REMARK  status: ('A' for Active; 'I' for Inactive)
REMARK    1  A    between atoms: C_1  and  O_2
REMARK    2  A    between atoms: O_2  and  C_3
REMARK    3  A    between atoms: C_6  and  C_7
REMARK    4  A    between atoms: C_7  and  C_9
REMARK    5  A    between atoms: C_15  and  O_16
REMARK                            x       y       z     vdW  Elec       q    Type
REMARK                         _______ _______ _______ _____ _____    ______ ____
ROOT
ATOM      1  C   UNL     1       0.547  -8.790  -1.744  0.00  0.00    +0.000 A 
ATOM      2  C   UNL     1       1.881  -9.030  -2.035  0.00  0.00    +0.000 A 
ATOM      3  C   UNL     1       2.871  -8.259  -1.464  0.00  0.00    +0.000 A 
ATOM      4  C   UNL     1       2.543  -7.227  -0.594  0.00  0.00    +0.000 A 
ATOM      5  C   UNL     1       1.194  -6.974  -0.304  0.00  0.00    +0.000 A 
ATOM      6  C   UNL     1       0.208  -7.764  -0.882  0.00  0.00    +0.000 A 
ENDROOT
BRANCH   1   8
ATOM      7  C   UNL     1      -0.208 -10.012  -3.673  0.00  0.00    +0.000 C 
ATOM      8  O   UNL     1      -0.386  -9.600  -2.343  0.00  0.00    +0.000 OA
ENDBRANCH   1   8
BRANCH   4   9
ATOM      9  C   UNL     1       3.622  -6.381   0.029  0.00  0.00    +0.000 C 
ATOM     10  O   UNL     1       3.807  -5.256  -0.375  0.00  0.00    +0.000 OA
BRANCH   9  11
ATOM     11  C   UNL     1       4.461  -6.928   1.116  0.00  0.00    +0.000 A 
ATOM     12  C   UNL     1       3.928  -7.811   2.048  0.00  0.00    +0.000 A 
ATOM     13  C   UNL     1       4.728  -8.302   3.069  0.00  0.00    +0.000 A 
ATOM     14  C   UNL     1       6.064  -7.918   3.155  0.00  0.00    +0.000 A 
ATOM     15  C   UNL     1       6.594  -7.024   2.233  0.00  0.00    +0.000 A 
ATOM     16  C   UNL     1       5.788  -6.513   1.213  0.00  0.00    +0.000 A 
ENDBRANCH   9  11
ENDBRANCH   4   9
BRANCH   5  17
ATOM     17  O   UNL     1       0.863  -5.962   0.546  0.00  0.00    +0.000 OA
ATOM     18  H   UNL     1       0.725  -5.046   0.195  0.00  0.00    +0.000 HD
ENDBRANCH   5  17
TORSDOF 4
ENDMDL
