REMARK  Name = bgox31_4_ligand
REMARK  5 active torsions:
REMARK  status: ('A' for Active; 'I' for Inactive)
REMARK    1  A    between atoms: C_1  and  O_2
REMARK    2  A    between atoms: O_2  and  C_3
REMARK    3  A    between atoms: C_6  and  C_7
REMARK    4  A    between atoms: C_7  and  C_9
REMARK    5  A    between atoms: C_15  and  O_16
REMARK                            x       y       z     vdW  Elec       q    Type
REMARK                         _______ _______ _______ _____ _____    ______ ____
ROOT
ATOM      1  C   UNL     1      -5.085  -7.077   5.170  0.00  0.00    +0.000 A 
ATOM      2  C   UNL     1      -5.580  -5.805   5.073  0.00  0.00    +0.000 A 
ATOM      3  C   UNL     1      -5.582  -5.103   3.814  0.00  0.00    +0.000 A 
ATOM      4  C   UNL     1      -5.002  -5.761   2.720  0.00  0.00    +0.000 A 
ATOM      5  C   UNL     1      -4.525  -7.060   2.841  0.00  0.00    +0.000 A 
ATOM      6  C   UNL     1      -4.544  -7.746   4.070  0.00  0.00    +0.000 A 
ENDROOT
BRANCH   1   8
ATOM      7  C   UNL     1      -4.443  -8.988   6.450  0.00  0.00    +0.000 C 
ATOM      8  O   UNL     1      -5.136  -7.713   6.385  0.00  0.00    +0.000 OA
ENDBRANCH   1   8
BRANCH   4   9
ATOM      9  C   UNL     1      -4.978  -5.020   1.447  0.00  0.00    +0.000 C 
ATOM     10  O   UNL     1      -6.110  -4.756   0.922  0.00  0.00    +0.000 OA
BRANCH   9  11
ATOM     11  C   UNL     1      -3.790  -4.371   0.887  0.00  0.00    +0.000 A 
ATOM     12  C   UNL     1      -3.994  -3.503  -0.194  0.00  0.00    +0.000 A 
ATOM     13  C   UNL     1      -2.872  -2.923  -0.826  0.00  0.00    +0.000 A 
ATOM     14  C   UNL     1      -1.620  -3.288  -0.444  0.00  0.00    +0.000 A 
ATOM     15  C   UNL     1      -1.394  -4.192   0.580  0.00  0.00    +0.000 A 
ATOM     16  C   UNL     1      -2.489  -4.775   1.249  0.00  0.00    +0.000 A 
ENDBRANCH   9  11
ENDBRANCH   4   9
BRANCH   5  17
ATOM     17  O   UNL     1      -3.979  -7.669   1.698  0.00  0.00    +0.000 OA
ATOM     18  H   UNL     1      -3.630  -8.594   1.749  0.00  0.00    +0.000 HD
ENDBRANCH   5  17
TORSDOF 4
