MODEL 1
REMARK VINA RESULT:      -4.8      0.000      0.000
REMARK  Name = bgox31_4_ligand
REMARK  5 active torsions:
REMARK  status: ('A' for Active; 'I' for Inactive)
REMARK    1  A    between atoms: C_1  and  O_2
REMARK    2  A    between atoms: O_2  and  C_3
REMARK    3  A    between atoms: C_6  and  C_7
REMARK    4  A    between atoms: C_7  and  C_9
REMARK    5  A    between atoms: C_15  and  O_16
REMARK                            x       y       z     vdW  Elec       q    Type
REMARK                         _______ _______ _______ _____ _____    ______ ____
ROOT
ATOM      1  C   UNL     1      -2.947  -3.045  -0.059  0.00  0.00    +0.000 A 
ATOM      2  C   UNL     1      -2.880  -2.550  -1.333  0.00  0.00    +0.000 A 
ATOM      3  C   UNL     1      -4.037  -2.558  -2.194  0.00  0.00    +0.000 A 
ATOM      4  C   UNL     1      -5.203  -3.147  -1.684  0.00  0.00    +0.000 A 
ATOM      5  C   UNL     1      -5.249  -3.623  -0.380  0.00  0.00    +0.000 A 
ATOM      6  C   UNL     1      -4.121  -3.594   0.461  0.00  0.00    +0.000 A 
ENDROOT
BRANCH   1   8
ATOM      7  C   UNL     1      -0.883  -4.075   0.558  0.00  0.00    +0.000 C 
ATOM      8  O   UNL     1      -1.826  -2.984   0.731  0.00  0.00    +0.000 OA
ENDBRANCH   1   8
BRANCH   4   9
ATOM      9  C   UNL     1      -6.367  -3.181  -2.586  0.00  0.00    +0.000 C 
ATOM     10  O   UNL     1      -6.703  -4.326  -3.037  0.00  0.00    +0.000 OA
BRANCH   9  11
ATOM     11  C   UNL     1      -7.288  -2.061  -2.795  0.00  0.00    +0.000 A 
ATOM     12  C   UNL     1      -7.131  -1.327  -3.979  0.00  0.00    +0.000 A 
ATOM     13  C   UNL     1      -7.934  -0.183  -4.185  0.00  0.00    +0.000 A 
ATOM     14  C   UNL     1      -8.768   0.241  -3.200  0.00  0.00    +0.000 A 
ATOM     15  C   UNL     1      -8.893  -0.432  -1.997  0.00  0.00    +0.000 A 
ATOM     16  C   UNL     1      -8.124  -1.590  -1.763  0.00  0.00    +0.000 A 
ENDBRANCH   9  11
ENDBRANCH   4   9
BRANCH   5  17
ATOM     17  O   UNL     1      -6.458  -4.178   0.074  0.00  0.00    +0.000 OA
ATOM     18  H   UNL     1      -6.651  -5.137  -0.080  0.00  0.00    +0.000 HD
ENDBRANCH   5  17
TORSDOF 4
ENDMDL
MODEL 2
REMARK VINA RESULT:      -4.7      3.867      6.777
REMARK  Name = bgox31_4_ligand
REMARK  5 active torsions:
REMARK  status: ('A' for Active; 'I' for Inactive)
REMARK    1  A    between atoms: C_1  and  O_2
REMARK    2  A    between atoms: O_2  and  C_3
REMARK    3  A    between atoms: C_6  and  C_7
REMARK    4  A    between atoms: C_7  and  C_9
REMARK    5  A    between atoms: C_15  and  O_16
REMARK                            x       y       z     vdW  Elec       q    Type
REMARK                         _______ _______ _______ _____ _____    ______ ____
ROOT
ATOM      1  C   UNL     1      -3.107  -3.405   0.331  0.00  0.00    +0.000 A 
ATOM      2  C   UNL     1      -2.498  -4.233   1.235  0.00  0.00    +0.000 A 
ATOM      3  C   UNL     1      -3.261  -5.195   1.992  0.00  0.00    +0.000 A 
ATOM      4  C   UNL     1      -4.650  -5.195   1.800  0.00  0.00    +0.000 A 
ATOM      5  C   UNL     1      -5.240  -4.358   0.861  0.00  0.00    +0.000 A 
ATOM      6  C   UNL     1      -4.486  -3.435   0.112  0.00  0.00    +0.000 A 
ENDROOT
BRANCH   1   8
ATOM      7  C   UNL     1      -1.056  -3.057  -0.842  0.00  0.00    +0.000 C 
ATOM      8  O   UNL     1      -2.331  -2.530  -0.387  0.00  0.00    +0.000 OA
ENDBRANCH   1   8
BRANCH   4   9
ATOM      9  C   UNL     1      -5.422  -6.158   2.604  0.00  0.00    +0.000 C 
ATOM     10  O   UNL     1      -5.876  -7.178   1.988  0.00  0.00    +0.000 OA
BRANCH   9  11
ATOM     11  C   UNL     1      -5.491  -6.149   4.068  0.00  0.00    +0.000 A 
ATOM     12  C   UNL     1      -5.813  -4.929   4.678  0.00  0.00    +0.000 A 
ATOM     13  C   UNL     1      -5.804  -4.847   6.088  0.00  0.00    +0.000 A 
ATOM     14  C   UNL     1      -5.393  -5.914   6.822  0.00  0.00    +0.000 A 
ATOM     15  C   UNL     1      -5.010  -7.110   6.239  0.00  0.00    +0.000 A 
ATOM     16  C   UNL     1      -5.027  -7.236   4.835  0.00  0.00    +0.000 A 
ENDBRANCH   9  11
ENDBRANCH   4   9
BRANCH   5  17
ATOM     17  O   UNL     1      -6.634  -4.429   0.702  0.00  0.00    +0.000 OA
ATOM     18  H   UNL     1      -7.024  -4.999  -0.007  0.00  0.00    +0.000 HD
ENDBRANCH   5  17
TORSDOF 4
ENDMDL
MODEL 3
REMARK VINA RESULT:      -4.7      4.093      6.639
REMARK  Name = bgox31_4_ligand
REMARK  5 active torsions:
REMARK  status: ('A' for Active; 'I' for Inactive)
REMARK    1  A    between atoms: C_1  and  O_2
REMARK    2  A    between atoms: O_2  and  C_3
REMARK    3  A    between atoms: C_6  and  C_7
REMARK    4  A    between atoms: C_7  and  C_9
REMARK    5  A    between atoms: C_15  and  O_16
REMARK                            x       y       z     vdW  Elec       q    Type
REMARK                         _______ _______ _______ _____ _____    ______ ____
ROOT
ATOM      1  C   UNL     1      -4.737  -7.627   4.747  0.00  0.00    +0.000 A 
ATOM      2  C   UNL     1      -5.132  -6.321   4.855  0.00  0.00    +0.000 A 
ATOM      3  C   UNL     1      -5.121  -5.445   3.710  0.00  0.00    +0.000 A 
ATOM      4  C   UNL     1      -4.633  -5.978   2.508  0.00  0.00    +0.000 A 
ATOM      5  C   UNL     1      -4.257  -7.313   2.422  0.00  0.00    +0.000 A 
ATOM      6  C   UNL     1      -4.289  -8.167   3.540  0.00  0.00    +0.000 A 
ENDROOT
BRANCH   1   8
ATOM      7  C   UNL     1      -4.211  -7.864   7.065  0.00  0.00    +0.000 C 
ATOM      8  O   UNL     1      -4.797  -8.427   5.861  0.00  0.00    +0.000 OA
ENDBRANCH   1   8
BRANCH   4   9
ATOM      9  C   UNL     1      -4.593  -5.064   1.354  0.00  0.00    +0.000 C 
ATOM     10  O   UNL     1      -5.717  -4.755   0.835  0.00  0.00    +0.000 OA
BRANCH   9  11
ATOM     11  C   UNL     1      -3.409  -4.314   0.930  0.00  0.00    +0.000 A 
ATOM     12  C   UNL     1      -3.615  -3.265   0.024  0.00  0.00    +0.000 A 
ATOM     13  C   UNL     1      -2.495  -2.570  -0.484  0.00  0.00    +0.000 A 
ATOM     14  C   UNL     1      -1.242  -2.988  -0.167  0.00  0.00    +0.000 A 
ATOM     15  C   UNL     1      -1.013  -4.063   0.676  0.00  0.00    +0.000 A 
ATOM     16  C   UNL     1      -2.106  -4.767   1.220  0.00  0.00    +0.000 A 
ENDBRANCH   9  11
ENDBRANCH   4   9
BRANCH   5  17
ATOM     17  O   UNL     1      -3.801  -7.788   1.180  0.00  0.00    +0.000 OA
ATOM     18  H   UNL     1      -4.317  -7.596   0.357  0.00  0.00    +0.000 HD
ENDBRANCH   5  17
TORSDOF 4
ENDMDL
MODEL 4
REMARK VINA RESULT:      -4.7      2.318      6.496
REMARK  Name = bgox31_4_ligand
REMARK  5 active torsions:
REMARK  status: ('A' for Active; 'I' for Inactive)
REMARK    1  A    between atoms: C_1  and  O_2
REMARK    2  A    between atoms: O_2  and  C_3
REMARK    3  A    between atoms: C_6  and  C_7
REMARK    4  A    between atoms: C_7  and  C_9
REMARK    5  A    between atoms: C_15  and  O_16
REMARK                            x       y       z     vdW  Elec       q    Type
REMARK                         _______ _______ _______ _____ _____    ______ ____
ROOT
ATOM      1  C   UNL     1      -5.764  -2.772  -2.289  0.00  0.00    +0.000 A 
ATOM      2  C   UNL     1      -6.280  -3.364  -1.169  0.00  0.00    +0.000 A 
ATOM      3  C   UNL     1      -5.431  -3.721  -0.060  0.00  0.00    +0.000 A 
ATOM      4  C   UNL     1      -4.056  -3.488  -0.212  0.00  0.00    +0.000 A 
ATOM      5  C   UNL     1      -3.561  -2.866  -1.352  0.00  0.00    +0.000 A 
ATOM      6  C   UNL     1      -4.400  -2.503  -2.422  0.00  0.00    +0.000 A 
ENDROOT
BRANCH   1   8
ATOM      7  C   UNL     1      -6.927  -1.006  -3.399  0.00  0.00    +0.000 C 
ATOM      8  O   UNL     1      -6.620  -2.423  -3.303  0.00  0.00    +0.000 OA
ENDBRANCH   1   8
BRANCH   4   9
ATOM      9  C   UNL     1      -3.195  -3.889   0.913  0.00  0.00    +0.000 C 
ATOM     10  O   UNL     1      -2.302  -3.051   1.272  0.00  0.00    +0.000 OA
BRANCH   9  11
ATOM     11  C   UNL     1      -3.445  -5.043   1.780  0.00  0.00    +0.000 A 
ATOM     12  C   UNL     1      -2.792  -6.237   1.448  0.00  0.00    +0.000 A 
ATOM     13  C   UNL     1      -3.070  -7.400   2.199  0.00  0.00    +0.000 A 
ATOM     14  C   UNL     1      -4.031  -7.368   3.159  0.00  0.00    +0.000 A 
ATOM     15  C   UNL     1      -4.735  -6.215   3.462  0.00  0.00    +0.000 A 
ATOM     16  C   UNL     1      -4.469  -5.029   2.749  0.00  0.00    +0.000 A 
ENDBRANCH   9  11
ENDBRANCH   4   9
BRANCH   5  17
ATOM     17  O   UNL     1      -2.176  -2.640  -1.428  0.00  0.00    +0.000 OA
ATOM     18  H   UNL     1      -1.809  -2.057  -2.139  0.00  0.00    +0.000 HD
ENDBRANCH   5  17
TORSDOF 4
ENDMDL
MODEL 5
REMARK VINA RESULT:      -4.6      4.148      6.615
REMARK  Name = bgox31_4_ligand
REMARK  5 active torsions:
REMARK  status: ('A' for Active; 'I' for Inactive)
REMARK    1  A    between atoms: C_1  and  O_2
REMARK    2  A    between atoms: O_2  and  C_3
REMARK    3  A    between atoms: C_6  and  C_7
REMARK    4  A    between atoms: C_7  and  C_9
REMARK    5  A    between atoms: C_15  and  O_16
REMARK                            x       y       z     vdW  Elec       q    Type
REMARK                         _______ _______ _______ _____ _____    ______ ____
ROOT
ATOM      1  C   UNL     1      -7.200  -4.626   5.025  0.00  0.00    +0.000 A 
ATOM      2  C   UNL     1      -5.964  -5.202   5.135  0.00  0.00    +0.000 A 
ATOM      3  C   UNL     1      -5.149  -5.438   3.970  0.00  0.00    +0.000 A 
ATOM      4  C   UNL     1      -5.707  -5.106   2.727  0.00  0.00    +0.000 A 
ATOM      5  C   UNL     1      -6.955  -4.503   2.645  0.00  0.00    +0.000 A 
ATOM      6  C   UNL     1      -7.738  -4.258   3.790  0.00  0.00    +0.000 A 
ENDROOT
BRANCH   1   8
ATOM      7  C   UNL     1      -8.135  -2.994   6.497  0.00  0.00    +0.000 C 
ATOM      8  O   UNL     1      -7.923  -4.393   6.168  0.00  0.00    +0.000 OA
ENDBRANCH   1   8
BRANCH   4   9
ATOM      9  C   UNL     1      -4.878  -5.384   1.541  0.00  0.00    +0.000 C 
ATOM     10  O   UNL     1      -5.346  -6.228   0.707  0.00  0.00    +0.000 OA
BRANCH   9  11
ATOM     11  C   UNL     1      -3.707  -4.598   1.144  0.00  0.00    +0.000 A 
ATOM     12  C   UNL     1      -3.938  -3.498   0.309  0.00  0.00    +0.000 A 
ATOM     13  C   UNL     1      -2.833  -2.762  -0.174  0.00  0.00    +0.000 A 
ATOM     14  C   UNL     1      -1.571  -3.188   0.095  0.00  0.00    +0.000 A 
ATOM     15  C   UNL     1      -1.318  -4.310   0.866  0.00  0.00    +0.000 A 
ATOM     16  C   UNL     1      -2.396  -5.056   1.384  0.00  0.00    +0.000 A 
ENDBRANCH   9  11
ENDBRANCH   4   9
BRANCH   5  17
ATOM     17  O   UNL     1      -7.444  -4.173   1.369  0.00  0.00    +0.000 OA
ATOM     18  H   UNL     1      -6.818  -3.881   0.660  0.00  0.00    +0.000 HD
ENDBRANCH   5  17
TORSDOF 4
ENDMDL
MODEL 6
REMARK VINA RESULT:      -4.6      2.117      6.088
REMARK  Name = bgox31_4_ligand
REMARK  5 active torsions:
REMARK  status: ('A' for Active; 'I' for Inactive)
REMARK    1  A    between atoms: C_1  and  O_2
REMARK    2  A    between atoms: O_2  and  C_3
REMARK    3  A    between atoms: C_6  and  C_7
REMARK    4  A    between atoms: C_7  and  C_9
REMARK    5  A    between atoms: C_15  and  O_16
REMARK                            x       y       z     vdW  Elec       q    Type
REMARK                         _______ _______ _______ _____ _____    ______ ____
ROOT
ATOM      1  C   UNL     1      -9.345   0.175  -1.963  0.00  0.00    +0.000 A 
ATOM      2  C   UNL     1      -9.458  -1.023  -1.311  0.00  0.00    +0.000 A 
ATOM      3  C   UNL     1      -8.464  -2.055  -1.476  0.00  0.00    +0.000 A 
ATOM      4  C   UNL     1      -7.421  -1.792  -2.375  0.00  0.00    +0.000 A 
ATOM      5  C   UNL     1      -7.319  -0.560  -3.009  0.00  0.00    +0.000 A 
ATOM      6  C   UNL     1      -8.283   0.449  -2.828  0.00  0.00    +0.000 A 
ENDROOT
BRANCH   1   8
ATOM      7  C   UNL     1      -9.825   2.358  -1.122  0.00  0.00    +0.000 C 
ATOM      8  O   UNL     1     -10.301   1.135  -1.746  0.00  0.00    +0.000 OA
ENDBRANCH   1   8
BRANCH   4   9
ATOM      9  C   UNL     1      -6.431  -2.867  -2.562  0.00  0.00    +0.000 C 
ATOM     10  O   UNL     1      -6.528  -3.549  -3.636  0.00  0.00    +0.000 OA
BRANCH   9  11
ATOM     11  C   UNL     1      -5.230  -3.041  -1.742  0.00  0.00    +0.000 A 
ATOM     12  C   UNL     1      -5.414  -3.552  -0.451  0.00  0.00    +0.000 A 
ATOM     13  C   UNL     1      -4.299  -3.653   0.410  0.00  0.00    +0.000 A 
ATOM     14  C   UNL     1      -3.094  -3.167   0.012  0.00  0.00    +0.000 A 
ATOM     15  C   UNL     1      -2.902  -2.601  -1.237  0.00  0.00    +0.000 A 
ATOM     16  C   UNL     1      -3.987  -2.502  -2.132  0.00  0.00    +0.000 A 
ENDBRANCH   9  11
ENDBRANCH   4   9
BRANCH   5  17
ATOM     17  O   UNL     1      -6.234  -0.356  -3.878  0.00  0.00    +0.000 OA
ATOM     18  H   UNL     1      -6.276   0.358  -4.563  0.00  0.00    +0.000 HD
ENDBRANCH   5  17
TORSDOF 4
ENDMDL
MODEL 7
REMARK VINA RESULT:      -4.6      4.276      6.610
REMARK  Name = bgox31_4_ligand
REMARK  5 active torsions:
REMARK  status: ('A' for Active; 'I' for Inactive)
REMARK    1  A    between atoms: C_1  and  O_2
REMARK    2  A    between atoms: O_2  and  C_3
REMARK    3  A    between atoms: C_6  and  C_7
REMARK    4  A    between atoms: C_7  and  C_9
REMARK    5  A    between atoms: C_15  and  O_16
REMARK                            x       y       z     vdW  Elec       q    Type
REMARK                         _______ _______ _______ _____ _____    ______ ____
ROOT
ATOM      1  C   UNL     1      -6.805  -8.001  -0.222  0.00  0.00    +0.000 A 
ATOM      2  C   UNL     1      -7.191  -6.692  -0.119  0.00  0.00    +0.000 A 
ATOM      3  C   UNL     1      -6.347  -5.718   0.527  0.00  0.00    +0.000 A 
ATOM      4  C   UNL     1      -5.153  -6.187   1.091  0.00  0.00    +0.000 A 
ATOM      5  C   UNL     1      -4.775  -7.517   0.955  0.00  0.00    +0.000 A 
ATOM      6  C   UNL     1      -5.595  -8.459   0.306  0.00  0.00    +0.000 A 
ENDROOT
BRANCH   1   8
ATOM      7  C   UNL     1      -7.844 -10.150  -0.201  0.00  0.00    +0.000 C 
ATOM      8  O   UNL     1      -7.630  -8.882  -0.875  0.00  0.00    +0.000 OA
ENDBRANCH   1   8
BRANCH   4   9
ATOM      9  C   UNL     1      -4.316  -5.189   1.780  0.00  0.00    +0.000 C 
ATOM     10  O   UNL     1      -4.381  -5.175   3.053  0.00  0.00    +0.000 OA
BRANCH   9  11
ATOM     11  C   UNL     1      -3.262  -4.403   1.134  0.00  0.00    +0.000 A 
ATOM     12  C   UNL     1      -3.676  -3.387   0.262  0.00  0.00    +0.000 A 
ATOM     13  C   UNL     1      -2.699  -2.660  -0.453  0.00  0.00    +0.000 A 
ATOM     14  C   UNL     1      -1.391  -3.019  -0.361  0.00  0.00    +0.000 A 
ATOM     15  C   UNL     1      -0.965  -4.060   0.445  0.00  0.00    +0.000 A 
ATOM     16  C   UNL     1      -1.909  -4.794   1.191  0.00  0.00    +0.000 A 
ENDBRANCH   9  11
ENDBRANCH   4   9
BRANCH   5  17
ATOM     17  O   UNL     1      -3.553  -7.915   1.524  0.00  0.00    +0.000 OA
ATOM     18  H   UNL     1      -3.200  -8.824   1.352  0.00  0.00    +0.000 HD
ENDBRANCH   5  17
TORSDOF 4
ENDMDL
MODEL 8
REMARK VINA RESULT:      -4.5      4.356      6.923
REMARK  Name = bgox31_4_ligand
REMARK  5 active torsions:
REMARK  status: ('A' for Active; 'I' for Inactive)
REMARK    1  A    between atoms: C_1  and  O_2
REMARK    2  A    between atoms: O_2  and  C_3
REMARK    3  A    between atoms: C_6  and  C_7
REMARK    4  A    between atoms: C_7  and  C_9
REMARK    5  A    between atoms: C_15  and  O_16
REMARK                            x       y       z     vdW  Elec       q    Type
REMARK                         _______ _______ _______ _____ _____    ______ ____
ROOT
ATOM      1  C   UNL     1      -5.337  -6.712   5.718  0.00  0.00    +0.000 A 
ATOM      2  C   UNL     1      -5.643  -5.435   5.332  0.00  0.00    +0.000 A 
ATOM      3  C   UNL     1      -5.475  -5.012   3.965  0.00  0.00    +0.000 A 
ATOM      4  C   UNL     1      -4.931  -5.949   3.074  0.00  0.00    +0.000 A 
ATOM      5  C   UNL     1      -4.648  -7.244   3.487  0.00  0.00    +0.000 A 
ATOM      6  C   UNL     1      -4.833  -7.655   4.820  0.00  0.00    +0.000 A 
ENDROOT
BRANCH   1   8
ATOM      7  C   UNL     1      -6.248  -6.094   7.837  0.00  0.00    +0.000 C 
ATOM      8  O   UNL     1      -5.546  -7.073   7.026  0.00  0.00    +0.000 OA
ENDBRANCH   1   8
BRANCH   4   9
ATOM      9  C   UNL     1      -4.731  -5.494   1.687  0.00  0.00    +0.000 C 
ATOM     10  O   UNL     1      -5.713  -5.657   0.888  0.00  0.00    +0.000 OA
BRANCH   9  11
ATOM     11  C   UNL     1      -3.607  -4.669   1.238  0.00  0.00    +0.000 A 
ATOM     12  C   UNL     1      -3.911  -3.590   0.397  0.00  0.00    +0.000 A 
ATOM     13  C   UNL     1      -2.853  -2.819  -0.135  0.00  0.00    +0.000 A 
ATOM     14  C   UNL     1      -1.566  -3.192   0.095  0.00  0.00    +0.000 A 
ATOM     15  C   UNL     1      -1.243  -4.292   0.870  0.00  0.00    +0.000 A 
ATOM     16  C   UNL     1      -2.271  -5.072   1.436  0.00  0.00    +0.000 A 
ENDBRANCH   9  11
ENDBRANCH   4   9
BRANCH   5  17
ATOM     17  O   UNL     1      -4.129  -8.139   2.535  0.00  0.00    +0.000 OA
ATOM     18  H   UNL     1      -3.271  -7.938   2.083  0.00  0.00    +0.000 HD
ENDBRANCH   5  17
TORSDOF 4
ENDMDL
MODEL 9
REMARK VINA RESULT:      -4.3      4.452      6.965
REMARK  Name = bgox31_4_ligand
REMARK  5 active torsions:
REMARK  status: ('A' for Active; 'I' for Inactive)
REMARK    1  A    between atoms: C_1  and  O_2
REMARK    2  A    between atoms: O_2  and  C_3
REMARK    3  A    between atoms: C_6  and  C_7
REMARK    4  A    between atoms: C_7  and  C_9
REMARK    5  A    between atoms: C_15  and  O_16
REMARK                            x       y       z     vdW  Elec       q    Type
REMARK                         _______ _______ _______ _____ _____    ______ ____
ROOT
ATOM      1  C   UNL     1      -5.075  -9.606   1.291  0.00  0.00    +0.000 A 
ATOM      2  C   UNL     1      -5.749  -8.604   0.647  0.00  0.00    +0.000 A 
ATOM      3  C   UNL     1      -5.403  -7.221   0.859  0.00  0.00    +0.000 A 
ATOM      4  C   UNL     1      -4.393  -6.956   1.795  0.00  0.00    +0.000 A 
ATOM      5  C   UNL     1      -3.711  -7.993   2.420  0.00  0.00    +0.000 A 
ATOM      6  C   UNL     1      -4.042  -9.342   2.193  0.00  0.00    +0.000 A 
ENDROOT
BRANCH   1   8
ATOM      7  C   UNL     1      -4.444 -11.905   1.427  0.00  0.00    +0.000 C 
ATOM      8  O   UNL     1      -5.423 -10.908   1.030  0.00  0.00    +0.000 OA
ENDBRANCH   1   8
BRANCH   4   9
ATOM      9  C   UNL     1      -4.072  -5.538   2.029  0.00  0.00    +0.000 C 
ATOM     10  O   UNL     1      -4.371  -5.070   3.178  0.00  0.00    +0.000 OA
BRANCH   9  11
ATOM     11  C   UNL     1      -3.235  -4.719   1.148  0.00  0.00    +0.000 A 
ATOM     12  C   UNL     1      -1.849  -4.902   1.244  0.00  0.00    +0.000 A 
ATOM     13  C   UNL     1      -0.996  -4.074   0.481  0.00  0.00    +0.000 A 
ATOM     14  C   UNL     1      -1.522  -3.058  -0.252  0.00  0.00    +0.000 A 
ATOM     15  C   UNL     1      -2.885  -2.819  -0.312  0.00  0.00    +0.000 A 
ATOM     16  C   UNL     1      -3.769  -3.638   0.419  0.00  0.00    +0.000 A 
ENDBRANCH   9  11
ENDBRANCH   4   9
BRANCH   5  17
ATOM     17  O   UNL     1      -2.693  -7.656   3.328  0.00  0.00    +0.000 OA
ATOM     18  H   UNL     1      -1.746  -7.678   3.040  0.00  0.00    +0.000 HD
ENDBRANCH   5  17
TORSDOF 4
ENDMDL
