REMARK  Name = shuffle_control_ligand
REMARK  12 active torsions:
REMARK  status: ('A' for Active; 'I' for Inactive)
REMARK    1  A    between atoms: C_1  and  C_2
REMARK    2  A    between atoms: C_2  and  C_3
REMARK    3  A    between atoms: C_3  and  C_4
REMARK    4  A    between atoms: C_4  and  C_5
REMARK    5  A    between atoms: C_5  and  C_6
REMARK    6  A    between atoms: C_5  and  O_8
REMARK    7  A    between atoms: C_6  and  C_7
REMARK    8  A    between atoms: O_8  and  C_9
REMARK    9  A    between atoms: C_9  and  C_11
REMARK   10  A    between atoms: C_12  and  C_13
REMARK   11  A    between atoms: C_16  and  O_17
REMARK   12  A    between atoms: O_17  and  C_18
REMARK                            x       y       z     vdW  Elec       q    Type
REMARK                         _______ _______ _______ _____ _____    ______ ____
ROOT
ATOM      1  C   UNL     1       4.117  -1.509  -0.858  0.00  0.00    +0.000 C 
ATOM      2  O   UNL     1       3.255  -2.336  -0.992  0.00  0.00    +0.000 OA
ENDROOT
BRANCH   1   3
ATOM      3  C   UNL     1       3.899  -0.156  -0.293  0.00  0.00    +0.000 C 
ATOM      4  C   UNL     1       2.679   0.239   0.084  0.00  0.00    +0.000 C 
BRANCH   4   5
ATOM      5  C   UNL     1       2.376   1.583   0.630  0.00  0.00    +0.000 A 
ATOM      6  C   UNL     1       3.357   2.467   0.996  0.00  0.00    +0.000 A 
ATOM      7  C   UNL     1       3.028   3.720   1.503  0.00  0.00    +0.000 A 
ATOM      8  C   UNL     1       1.716   4.089   1.647  0.00  0.00    +0.000 A 
ATOM      9  C   UNL     1       0.729   3.206   1.284  0.00  0.00    +0.000 A 
ATOM     10  C   UNL     1       1.056   1.953   0.779  0.00  0.00    +0.000 A 
BRANCH   8  11
ATOM     11  O   UNL     1       1.329   5.304   2.131  0.00  0.00    +0.000 OA
ATOM     12  C   UNL     1       2.302   6.249   2.534  0.00  0.00    +0.000 C 
ENDBRANCH   8  11
ENDBRANCH   4   5
ENDBRANCH   1   3
BRANCH   1  13
ATOM     13  O   UNL     1       5.382  -1.747  -1.220  0.00  0.00    +0.000 OA
BRANCH  13  14
ATOM     14  C   UNL     1       5.750  -3.006  -1.745  0.00  0.00    +0.000 C 
BRANCH  14  15
ATOM     15  C   UNL     1       6.427  -2.828  -3.095  0.00  0.00    +0.000 C 
ATOM     16  C   UNL     1       5.830  -1.777  -3.967  0.00  0.00    +0.000 C 
ENDBRANCH  14  15
BRANCH  14  17
ATOM     17  C   UNL     1       6.721  -3.660  -0.789  0.00  0.00    +0.000 C 
BRANCH  17  18
ATOM     18  C   UNL     1       6.284  -3.621   0.640  0.00  0.00    +0.000 C 
BRANCH  18  20
ATOM     19  C   UNL     1       6.819  -4.275   2.987  0.00  0.00    +0.000 C 
ATOM     20  C   UNL     1       7.230  -4.367   1.544  0.00  0.00    +0.000 C 
ENDBRANCH  18  20
ENDBRANCH  17  18
ENDBRANCH  14  17
ENDBRANCH  13  14
ENDBRANCH   1  13
TORSDOF 9
