MODEL 1
REMARK VINA RESULT:      -5.1      0.000      0.000
REMARK  Name = shuffle_control_ligand
REMARK  12 active torsions:
REMARK  status: ('A' for Active; 'I' for Inactive)
REMARK    1  A    between atoms: C_1  and  C_2
REMARK    2  A    between atoms: C_2  and  C_3
REMARK    3  A    between atoms: C_3  and  C_4
REMARK    4  A    between atoms: C_4  and  C_5
REMARK    5  A    between atoms: C_5  and  C_6
REMARK    6  A    between atoms: C_5  and  O_8
REMARK    7  A    between atoms: C_6  and  C_7
REMARK    8  A    between atoms: O_8  and  C_9
REMARK    9  A    between atoms: C_9  and  C_11
REMARK   10  A    between atoms: C_12  and  C_13
REMARK   11  A    between atoms: C_16  and  O_17
REMARK   12  A    between atoms: O_17  and  C_18
REMARK                            x       y       z     vdW  Elec       q    Type
REMARK                         _______ _______ _______ _____ _____    ______ ____
ROOT
ATOM      1  C   UNL     1      -0.434   4.137   2.076  0.00  0.00    +0.000 C 
ATOM      2  O   UNL     1      -0.440   4.264   3.271  0.00  0.00    +0.000 OA
ENDROOT
BRANCH   1   3
ATOM      3  C   UNL     1       0.462   3.218   1.335  0.00  0.00    +0.000 C 
ATOM      4  C   UNL     1       1.540   2.692   1.926  0.00  0.00    +0.000 C 
BRANCH   4   5
ATOM      5  C   UNL     1       2.498   1.789   1.245  0.00  0.00    +0.000 A 
ATOM      6  C   UNL     1       3.709   2.223   0.772  0.00  0.00    +0.000 A 
ATOM      7  C   UNL     1       4.580   1.341   0.140  0.00  0.00    +0.000 A 
ATOM      8  C   UNL     1       4.239   0.024  -0.022  0.00  0.00    +0.000 A 
ATOM      9  C   UNL     1       3.026  -0.416   0.448  0.00  0.00    +0.000 A 
ATOM     10  C   UNL     1       2.154   0.464   1.078  0.00  0.00    +0.000 A 
BRANCH   8  11
ATOM     11  O   UNL     1       5.051  -0.891  -0.626  0.00  0.00    +0.000 OA
ATOM     12  C   UNL     1       4.500  -1.862  -1.495  0.00  0.00    +0.000 C 
ENDBRANCH   8  11
ENDBRANCH   4   5
ENDBRANCH   1   3
BRANCH   1  13
ATOM     13  O   UNL     1      -1.260   4.837   1.291  0.00  0.00    +0.000 OA
BRANCH  13  14
ATOM     14  C   UNL     1      -0.872   5.188  -0.021  0.00  0.00    +0.000 C 
BRANCH  14  15
ATOM     15  C   UNL     1      -1.978   4.833  -1.003  0.00  0.00    +0.000 C 
ATOM     16  C   UNL     1      -2.511   3.447  -0.878  0.00  0.00    +0.000 C 
ENDBRANCH  14  15
BRANCH  14  17
ATOM     17  C   UNL     1      -0.631   6.680  -0.069  0.00  0.00    +0.000 C 
BRANCH  17  18
ATOM     18  C   UNL     1       0.793   7.071   0.160  0.00  0.00    +0.000 C 
BRANCH  18  20
ATOM     19  C   UNL     1       2.940   5.803   0.227  0.00  0.00    +0.000 C 
ATOM     20  C   UNL     1       1.753   6.199  -0.606  0.00  0.00    +0.000 C 
ENDBRANCH  18  20
ENDBRANCH  17  18
ENDBRANCH  14  17
ENDBRANCH  13  14
ENDBRANCH   1  13
TORSDOF 9
ENDMDL
MODEL 2
REMARK VINA RESULT:      -5.0      1.405      2.226
REMARK  Name = shuffle_control_ligand
REMARK  12 active torsions:
REMARK  status: ('A' for Active; 'I' for Inactive)
REMARK    1  A    between atoms: C_1  and  C_2
REMARK    2  A    between atoms: C_2  and  C_3
REMARK    3  A    between atoms: C_3  and  C_4
REMARK    4  A    between atoms: C_4  and  C_5
REMARK    5  A    between atoms: C_5  and  C_6
REMARK    6  A    between atoms: C_5  and  O_8
REMARK    7  A    between atoms: C_6  and  C_7
REMARK    8  A    between atoms: O_8  and  C_9
REMARK    9  A    between atoms: C_9  and  C_11
REMARK   10  A    between atoms: C_12  and  C_13
REMARK   11  A    between atoms: C_16  and  O_17
REMARK   12  A    between atoms: O_17  and  C_18
REMARK                            x       y       z     vdW  Elec       q    Type
REMARK                         _______ _______ _______ _____ _____    ______ ____
ROOT
ATOM      1  C   UNL     1      -0.279   3.940   1.703  0.00  0.00    +0.000 C 
ATOM      2  O   UNL     1      -0.073   4.486   2.754  0.00  0.00    +0.000 OA
ENDROOT
BRANCH   1   3
ATOM      3  C   UNL     1       0.699   3.073   1.003  0.00  0.00    +0.000 C 
ATOM      4  C   UNL     1       1.561   2.321   1.693  0.00  0.00    +0.000 C 
BRANCH   4   5
ATOM      5  C   UNL     1       2.586   1.452   1.067  0.00  0.00    +0.000 A 
ATOM      6  C   UNL     1       2.389   0.111   0.862  0.00  0.00    +0.000 A 
ATOM      7  C   UNL     1       3.378  -0.667   0.270  0.00  0.00    +0.000 A 
ATOM      8  C   UNL     1       4.567  -0.106  -0.116  0.00  0.00    +0.000 A 
ATOM      9  C   UNL     1       4.771   1.236   0.089  0.00  0.00    +0.000 A 
ATOM     10  C   UNL     1       3.785   2.016   0.683  0.00  0.00    +0.000 A 
BRANCH   8  11
ATOM     11  O   UNL     1       5.572  -0.814  -0.707  0.00  0.00    +0.000 OA
ATOM     12  C   UNL     1       6.491  -1.538   0.087  0.00  0.00    +0.000 C 
ENDBRANCH   8  11
ENDBRANCH   4   5
ENDBRANCH   1   3
BRANCH   1  13
ATOM     13  O   UNL     1      -1.442   4.075   1.057  0.00  0.00    +0.000 OA
BRANCH  13  14
ATOM     14  C   UNL     1      -1.482   4.052  -0.355  0.00  0.00    +0.000 C 
BRANCH  14  15
ATOM     15  C   UNL     1      -2.613   3.153  -0.829  0.00  0.00    +0.000 C 
ATOM     16  C   UNL     1      -3.600   3.805  -1.736  0.00  0.00    +0.000 C 
ENDBRANCH  14  15
BRANCH  14  17
ATOM     17  C   UNL     1      -1.729   5.458  -0.851  0.00  0.00    +0.000 C 
BRANCH  17  18
ATOM     18  C   UNL     1      -0.623   6.007  -1.693  0.00  0.00    +0.000 C 
BRANCH  18  20
ATOM     19  C   UNL     1      -1.322   5.442  -4.020  0.00  0.00    +0.000 C 
ATOM     20  C   UNL     1      -1.122   6.538  -3.011  0.00  0.00    +0.000 C 
ENDBRANCH  18  20
ENDBRANCH  17  18
ENDBRANCH  14  17
ENDBRANCH  13  14
ENDBRANCH   1  13
TORSDOF 9
ENDMDL
MODEL 3
REMARK VINA RESULT:      -5.0      1.365      2.669
REMARK  Name = shuffle_control_ligand
REMARK  12 active torsions:
REMARK  status: ('A' for Active; 'I' for Inactive)
REMARK    1  A    between atoms: C_1  and  C_2
REMARK    2  A    between atoms: C_2  and  C_3
REMARK    3  A    between atoms: C_3  and  C_4
REMARK    4  A    between atoms: C_4  and  C_5
REMARK    5  A    between atoms: C_5  and  C_6
REMARK    6  A    between atoms: C_5  and  O_8
REMARK    7  A    between atoms: C_6  and  C_7
REMARK    8  A    between atoms: O_8  and  C_9
REMARK    9  A    between atoms: C_9  and  C_11
REMARK   10  A    between atoms: C_12  and  C_13
REMARK   11  A    between atoms: C_16  and  O_17
REMARK   12  A    between atoms: O_17  and  C_18
REMARK                            x       y       z     vdW  Elec       q    Type
REMARK                         _______ _______ _______ _____ _____    ______ ____
ROOT
ATOM      1  C   UNL     1       0.288   4.129   2.400  0.00  0.00    +0.000 C 
ATOM      2  O   UNL     1      -0.315   4.283   3.429  0.00  0.00    +0.000 OA
ENDROOT
BRANCH   1   3
ATOM      3  C   UNL     1       1.158   2.965   2.106  0.00  0.00    +0.000 C 
ATOM      4  C   UNL     1       2.026   3.001   1.090  0.00  0.00    +0.000 C 
BRANCH   4   5
ATOM      5  C   UNL     1       2.909   1.870   0.716  0.00  0.00    +0.000 A 
ATOM      6  C   UNL     1       4.210   2.051   0.326  0.00  0.00    +0.000 A 
ATOM      7  C   UNL     1       5.004   0.961  -0.016  0.00  0.00    +0.000 A 
ATOM      8  C   UNL     1       4.496  -0.311   0.031  0.00  0.00    +0.000 A 
ATOM      9  C   UNL     1       3.193  -0.497   0.419  0.00  0.00    +0.000 A 
ATOM     10  C   UNL     1       2.397   0.591   0.759  0.00  0.00    +0.000 A 
BRANCH   8  11
ATOM     11  O   UNL     1       5.225  -1.420  -0.285  0.00  0.00    +0.000 OA
ATOM     12  C   UNL     1       6.469  -1.286  -0.947  0.00  0.00    +0.000 C 
ENDBRANCH   8  11
ENDBRANCH   4   5
ENDBRANCH   1   3
BRANCH   1  13
ATOM     13  O   UNL     1       0.222   5.021   1.406  0.00  0.00    +0.000 OA
BRANCH  13  14
ATOM     14  C   UNL     1      -1.003   5.271   0.750  0.00  0.00    +0.000 C 
BRANCH  14  15
ATOM     15  C   UNL     1      -1.281   6.765   0.720  0.00  0.00    +0.000 C 
ATOM     16  C   UNL     1      -2.165   7.265   1.811  0.00  0.00    +0.000 C 
ENDBRANCH  14  15
BRANCH  14  17
ATOM     17  C   UNL     1      -0.902   4.760  -0.669  0.00  0.00    +0.000 C 
BRANCH  17  18
ATOM     18  C   UNL     1      -1.326   3.336  -0.832  0.00  0.00    +0.000 C 
BRANCH  18  20
ATOM     19  C   UNL     1      -3.412   4.197  -1.895  0.00  0.00    +0.000 C 
ATOM     20  C   UNL     1      -2.822   3.197  -0.940  0.00  0.00    +0.000 C 
ENDBRANCH  18  20
ENDBRANCH  17  18
ENDBRANCH  14  17
ENDBRANCH  13  14
ENDBRANCH   1  13
TORSDOF 9
ENDMDL
MODEL 4
REMARK VINA RESULT:      -4.9      0.975      2.543
REMARK  Name = shuffle_control_ligand
REMARK  12 active torsions:
REMARK  status: ('A' for Active; 'I' for Inactive)
REMARK    1  A    between atoms: C_1  and  C_2
REMARK    2  A    between atoms: C_2  and  C_3
REMARK    3  A    between atoms: C_3  and  C_4
REMARK    4  A    between atoms: C_4  and  C_5
REMARK    5  A    between atoms: C_5  and  C_6
REMARK    6  A    between atoms: C_5  and  O_8
REMARK    7  A    between atoms: C_6  and  C_7
REMARK    8  A    between atoms: O_8  and  C_9
REMARK    9  A    between atoms: C_9  and  C_11
REMARK   10  A    between atoms: C_12  and  C_13
REMARK   11  A    between atoms: C_16  and  O_17
REMARK   12  A    between atoms: O_17  and  C_18
REMARK                            x       y       z     vdW  Elec       q    Type
REMARK                         _______ _______ _______ _____ _____    ______ ____
ROOT
ATOM      1  C   UNL     1      -0.162   3.997   2.205  0.00  0.00    +0.000 C 
ATOM      2  O   UNL     1      -0.583   4.321   3.283  0.00  0.00    +0.000 OA
ENDROOT
BRANCH   1   3
ATOM      3  C   UNL     1       1.041   3.156   1.994  0.00  0.00    +0.000 C 
ATOM      4  C   UNL     1       1.175   2.421   0.886  0.00  0.00    +0.000 C 
BRANCH   4   5
ATOM      5  C   UNL     1       2.331   1.535   0.616  0.00  0.00    +0.000 A 
ATOM      6  C   UNL     1       2.216   0.170   0.560  0.00  0.00    +0.000 A 
ATOM      7  C   UNL     1       3.328  -0.624   0.301  0.00  0.00    +0.000 A 
ATOM      8  C   UNL     1       4.558  -0.054   0.101  0.00  0.00    +0.000 A 
ATOM      9  C   UNL     1       4.680   1.312   0.158  0.00  0.00    +0.000 A 
ATOM     10  C   UNL     1       3.570   2.108   0.418  0.00  0.00    +0.000 A 
BRANCH   8  11
ATOM     11  O   UNL     1       5.684  -0.777  -0.163  0.00  0.00    +0.000 OA
ATOM     12  C   UNL     1       5.918  -1.274  -1.467  0.00  0.00    +0.000 C 
ENDBRANCH   8  11
ENDBRANCH   4   5
ENDBRANCH   1   3
BRANCH   1  13
ATOM     13  O   UNL     1      -0.760   4.381   1.072  0.00  0.00    +0.000 OA
BRANCH  13  14
ATOM     14  C   UNL     1      -1.035   5.747   0.837  0.00  0.00    +0.000 C 
BRANCH  14  15
ATOM     15  C   UNL     1       0.266   6.524   0.707  0.00  0.00    +0.000 C 
ATOM     16  C   UNL     1       1.177   6.052  -0.374  0.00  0.00    +0.000 C 
ENDBRANCH  14  15
BRANCH  14  17
ATOM     17  C   UNL     1      -1.812   5.865  -0.454  0.00  0.00    +0.000 C 
BRANCH  17  18
ATOM     18  C   UNL     1      -2.082   4.555  -1.121  0.00  0.00    +0.000 C 
BRANCH  18  20
ATOM     19  C   UNL     1      -1.420   5.984  -3.055  0.00  0.00    +0.000 C 
ATOM     20  C   UNL     1      -1.828   4.609  -2.605  0.00  0.00    +0.000 C 
ENDBRANCH  18  20
ENDBRANCH  17  18
ENDBRANCH  14  17
ENDBRANCH  13  14
ENDBRANCH   1  13
TORSDOF 9
ENDMDL
MODEL 5
REMARK VINA RESULT:      -4.8      1.519      2.222
REMARK  Name = shuffle_control_ligand
REMARK  12 active torsions:
REMARK  status: ('A' for Active; 'I' for Inactive)
REMARK    1  A    between atoms: C_1  and  C_2
REMARK    2  A    between atoms: C_2  and  C_3
REMARK    3  A    between atoms: C_3  and  C_4
REMARK    4  A    between atoms: C_4  and  C_5
REMARK    5  A    between atoms: C_5  and  C_6
REMARK    6  A    between atoms: C_5  and  O_8
REMARK    7  A    between atoms: C_6  and  C_7
REMARK    8  A    between atoms: O_8  and  C_9
REMARK    9  A    between atoms: C_9  and  C_11
REMARK   10  A    between atoms: C_12  and  C_13
REMARK   11  A    between atoms: C_16  and  O_17
REMARK   12  A    between atoms: O_17  and  C_18
REMARK                            x       y       z     vdW  Elec       q    Type
REMARK                         _______ _______ _______ _____ _____    ______ ____
ROOT
ATOM      1  C   UNL     1      -0.578   3.890   1.315  0.00  0.00    +0.000 C 
ATOM      2  O   UNL     1      -0.597   4.264   2.457  0.00  0.00    +0.000 OA
ENDROOT
BRANCH   1   3
ATOM      3  C   UNL     1       0.500   3.063   0.722  0.00  0.00    +0.000 C 
ATOM      4  C   UNL     1       1.329   2.361   1.501  0.00  0.00    +0.000 C 
BRANCH   4   5
ATOM      5  C   UNL     1       2.447   1.535   0.986  0.00  0.00    +0.000 A 
ATOM      6  C   UNL     1       3.661   2.070   0.644  0.00  0.00    +0.000 A 
ATOM      7  C   UNL     1       4.684   1.257   0.167  0.00  0.00    +0.000 A 
ATOM      8  C   UNL     1       4.492  -0.093   0.028  0.00  0.00    +0.000 A 
ATOM      9  C   UNL     1       3.276  -0.634   0.366  0.00  0.00    +0.000 A 
ATOM     10  C   UNL     1       2.253   0.177   0.842  0.00  0.00    +0.000 A 
BRANCH   8  11
ATOM     11  O   UNL     1       5.456  -0.943  -0.428  0.00  0.00    +0.000 OA
ATOM     12  C   UNL     1       6.150  -0.651  -1.627  0.00  0.00    +0.000 C 
ENDBRANCH   8  11
ENDBRANCH   4   5
ENDBRANCH   1   3
BRANCH   1  13
ATOM     13  O   UNL     1      -1.557   4.199   0.458  0.00  0.00    +0.000 OA
BRANCH  13  14
ATOM     14  C   UNL     1      -1.262   4.862  -0.754  0.00  0.00    +0.000 C 
BRANCH  14  15
ATOM     15  C   UNL     1      -1.919   4.136  -1.917  0.00  0.00    +0.000 C 
ATOM     16  C   UNL     1      -3.395   3.969  -1.804  0.00  0.00    +0.000 C 
ENDBRANCH  14  15
BRANCH  14  17
ATOM     17  C   UNL     1      -1.810   6.268  -0.678  0.00  0.00    +0.000 C 
BRANCH  17  18
ATOM     18  C   UNL     1      -1.306   7.175  -1.754  0.00  0.00    +0.000 C 
BRANCH  18  20
ATOM     19  C   UNL     1      -3.732   7.739  -1.889  0.00  0.00    +0.000 C 
ATOM     20  C   UNL     1      -2.419   7.703  -2.620  0.00  0.00    +0.000 C 
ENDBRANCH  18  20
ENDBRANCH  17  18
ENDBRANCH  14  17
ENDBRANCH  13  14
ENDBRANCH   1  13
TORSDOF 9
ENDMDL
MODEL 6
REMARK VINA RESULT:      -4.7      1.791      2.310
REMARK  Name = shuffle_control_ligand
REMARK  12 active torsions:
REMARK  status: ('A' for Active; 'I' for Inactive)
REMARK    1  A    between atoms: C_1  and  C_2
REMARK    2  A    between atoms: C_2  and  C_3
REMARK    3  A    between atoms: C_3  and  C_4
REMARK    4  A    between atoms: C_4  and  C_5
REMARK    5  A    between atoms: C_5  and  C_6
REMARK    6  A    between atoms: C_5  and  O_8
REMARK    7  A    between atoms: C_6  and  C_7
REMARK    8  A    between atoms: O_8  and  C_9
REMARK    9  A    between atoms: C_9  and  C_11
REMARK   10  A    between atoms: C_12  and  C_13
REMARK   11  A    between atoms: C_16  and  O_17
REMARK   12  A    between atoms: O_17  and  C_18
REMARK                            x       y       z     vdW  Elec       q    Type
REMARK                         _______ _______ _______ _____ _____    ______ ____
ROOT
ATOM      1  C   UNL     1      -2.156   3.377  -0.661  0.00  0.00    +0.000 C 
ATOM      2  O   UNL     1      -3.169   2.757  -0.479  0.00  0.00    +0.000 OA
ENDROOT
BRANCH   1   3
ATOM      3  C   UNL     1      -0.804   2.772  -0.719  0.00  0.00    +0.000 C 
ATOM      4  C   UNL     1       0.052   2.911   0.298  0.00  0.00    +0.000 C 
BRANCH   4   5
ATOM      5  C   UNL     1       1.428   2.362   0.304  0.00  0.00    +0.000 A 
ATOM      6  C   UNL     1       2.530   3.138   0.550  0.00  0.00    +0.000 A 
ATOM      7  C   UNL     1       3.804   2.581   0.547  0.00  0.00    +0.000 A 
ATOM      8  C   UNL     1       3.979   1.246   0.295  0.00  0.00    +0.000 A 
ATOM      9  C   UNL     1       2.878   0.463   0.044  0.00  0.00    +0.000 A 
ATOM     10  C   UNL     1       1.604   1.019   0.045  0.00  0.00    +0.000 A 
BRANCH   8  11
ATOM     11  O   UNL     1       5.200   0.639   0.284  0.00  0.00    +0.000 OA
ATOM     12  C   UNL     1       5.307  -0.732  -0.049  0.00  0.00    +0.000 C 
ENDBRANCH   8  11
ENDBRANCH   4   5
ENDBRANCH   1   3
BRANCH   1  13
ATOM     13  O   UNL     1      -2.163   4.703  -0.831  0.00  0.00    +0.000 OA
BRANCH  13  14
ATOM     14  C   UNL     1      -1.584   5.279  -1.983  0.00  0.00    +0.000 C 
BRANCH  14  15
ATOM     15  C   UNL     1      -2.672   5.668  -2.972  0.00  0.00    +0.000 C 
ATOM     16  C   UNL     1      -4.056   5.671  -2.419  0.00  0.00    +0.000 C 
ENDBRANCH  14  15
BRANCH  14  17
ATOM     17  C   UNL     1      -0.826   6.520  -1.571  0.00  0.00    +0.000 C 
BRANCH  17  18
ATOM     18  C   UNL     1       0.509   6.240  -0.960  0.00  0.00    +0.000 C 
BRANCH  18  20
ATOM     19  C   UNL     1      -0.104   6.393   1.454  0.00  0.00    +0.000 C 
ATOM     20  C   UNL     1       0.708   6.983   0.335  0.00  0.00    +0.000 C 
ENDBRANCH  18  20
ENDBRANCH  17  18
ENDBRANCH  14  17
ENDBRANCH  13  14
ENDBRANCH   1  13
TORSDOF 9
ENDMDL
MODEL 7
REMARK VINA RESULT:      -4.7      3.686      7.296
REMARK  Name = shuffle_control_ligand
REMARK  12 active torsions:
REMARK  status: ('A' for Active; 'I' for Inactive)
REMARK    1  A    between atoms: C_1  and  C_2
REMARK    2  A    between atoms: C_2  and  C_3
REMARK    3  A    between atoms: C_3  and  C_4
REMARK    4  A    between atoms: C_4  and  C_5
REMARK    5  A    between atoms: C_5  and  C_6
REMARK    6  A    between atoms: C_5  and  O_8
REMARK    7  A    between atoms: C_6  and  C_7
REMARK    8  A    between atoms: O_8  and  C_9
REMARK    9  A    between atoms: C_9  and  C_11
REMARK   10  A    between atoms: C_12  and  C_13
REMARK   11  A    between atoms: C_16  and  O_17
REMARK   12  A    between atoms: O_17  and  C_18
REMARK                            x       y       z     vdW  Elec       q    Type
REMARK                         _______ _______ _______ _____ _____    ______ ____
ROOT
ATOM      1  C   UNL     1      -2.291   3.151  -0.517  0.00  0.00    +0.000 C 
ATOM      2  O   UNL     1      -3.317   2.532  -0.428  0.00  0.00    +0.000 OA
ENDROOT
BRANCH   1   3
ATOM      3  C   UNL     1      -1.861   3.891  -1.728  0.00  0.00    +0.000 C 
ATOM      4  C   UNL     1      -2.742   4.585  -2.454  0.00  0.00    +0.000 C 
BRANCH   4   5
ATOM      5  C   UNL     1      -2.396   5.325  -3.690  0.00  0.00    +0.000 A 
ATOM      6  C   UNL     1      -1.124   5.354  -4.199  0.00  0.00    +0.000 A 
ATOM      7  C   UNL     1      -0.843   6.061  -5.364  0.00  0.00    +0.000 A 
ATOM      8  C   UNL     1      -1.835   6.742  -6.020  0.00  0.00    +0.000 A 
ATOM      9  C   UNL     1      -3.111   6.718  -5.513  0.00  0.00    +0.000 A 
ATOM     10  C   UNL     1      -3.393   6.014  -4.349  0.00  0.00    +0.000 A 
BRANCH   8  11
ATOM     11  O   UNL     1      -1.625   7.447  -7.169  0.00  0.00    +0.000 OA
ATOM     12  C   UNL     1      -0.600   7.056  -8.062  0.00  0.00    +0.000 C 
ENDBRANCH   8  11
ENDBRANCH   4   5
ENDBRANCH   1   3
BRANCH   1  13
ATOM     13  O   UNL     1      -1.424   3.225   0.499  0.00  0.00    +0.000 OA
BRANCH  13  14
ATOM     14  C   UNL     1      -0.099   3.660   0.276  0.00  0.00    +0.000 C 
BRANCH  14  15
ATOM     15  C   UNL     1       0.323   4.624   1.375  0.00  0.00    +0.000 C 
ATOM     16  C   UNL     1      -0.426   4.487   2.656  0.00  0.00    +0.000 C 
ENDBRANCH  14  15
BRANCH  14  17
ATOM     17  C   UNL     1       0.813   2.455   0.302  0.00  0.00    +0.000 C 
BRANCH  17  18
ATOM     18  C   UNL     1       2.240   2.780   0.605  0.00  0.00    +0.000 C 
BRANCH  18  20
ATOM     19  C   UNL     1       2.196   0.310   0.949  0.00  0.00    +0.000 C 
ATOM     20  C   UNL     1       3.043   1.552   0.946  0.00  0.00    +0.000 C 
ENDBRANCH  18  20
ENDBRANCH  17  18
ENDBRANCH  14  17
ENDBRANCH  13  14
ENDBRANCH   1  13
TORSDOF 9
ENDMDL
MODEL 8
REMARK VINA RESULT:      -4.6      2.149      6.590
REMARK  Name = shuffle_control_ligand
REMARK  12 active torsions:
REMARK  status: ('A' for Active; 'I' for Inactive)
REMARK    1  A    between atoms: C_1  and  C_2
REMARK    2  A    between atoms: C_2  and  C_3
REMARK    3  A    between atoms: C_3  and  C_4
REMARK    4  A    between atoms: C_4  and  C_5
REMARK    5  A    between atoms: C_5  and  C_6
REMARK    6  A    between atoms: C_5  and  O_8
REMARK    7  A    between atoms: C_6  and  C_7
REMARK    8  A    between atoms: O_8  and  C_9
REMARK    9  A    between atoms: C_9  and  C_11
REMARK   10  A    between atoms: C_12  and  C_13
REMARK   11  A    between atoms: C_16  and  O_17
REMARK   12  A    between atoms: O_17  and  C_18
REMARK                            x       y       z     vdW  Elec       q    Type
REMARK                         _______ _______ _______ _____ _____    ______ ____
ROOT
ATOM      1  C   UNL     1       0.891   3.919   2.797  0.00  0.00    +0.000 C 
ATOM      2  O   UNL     1       0.566   4.024   3.949  0.00  0.00    +0.000 OA
ENDROOT
BRANCH   1   3
ATOM      3  C   UNL     1       0.150   4.515   1.660  0.00  0.00    +0.000 C 
ATOM      4  C   UNL     1      -0.867   3.863   1.089  0.00  0.00    +0.000 C 
BRANCH   4   5
ATOM      5  C   UNL     1      -1.637   4.379  -0.068  0.00  0.00    +0.000 A 
ATOM      6  C   UNL     1      -1.551   5.680  -0.487  0.00  0.00    +0.000 A 
ATOM      7  C   UNL     1      -2.290   6.123  -1.579  0.00  0.00    +0.000 A 
ATOM      8  C   UNL     1      -3.119   5.263  -2.252  0.00  0.00    +0.000 A 
ATOM      9  C   UNL     1      -3.211   3.958  -1.834  0.00  0.00    +0.000 A 
ATOM     10  C   UNL     1      -2.474   3.515  -0.742  0.00  0.00    +0.000 A 
BRANCH   8  11
ATOM     11  O   UNL     1      -3.864   5.633  -3.333  0.00  0.00    +0.000 OA
ATOM     12  C   UNL     1      -3.260   5.733  -4.609  0.00  0.00    +0.000 C 
ENDBRANCH   8  11
ENDBRANCH   4   5
ENDBRANCH   1   3
BRANCH   1  13
ATOM     13  O   UNL     1       1.979   3.232   2.434  0.00  0.00    +0.000 OA
BRANCH  13  14
ATOM     14  C   UNL     1       2.690   3.586   1.265  0.00  0.00    +0.000 C 
BRANCH  14  15
ATOM     15  C   UNL     1       4.009   4.245   1.638  0.00  0.00    +0.000 C 
ATOM     16  C   UNL     1       3.946   5.722   1.826  0.00  0.00    +0.000 C 
ENDBRANCH  14  15
BRANCH  14  17
ATOM     17  C   UNL     1       2.973   2.329   0.475  0.00  0.00    +0.000 C 
BRANCH  17  18
ATOM     18  C   UNL     1       1.838   1.356   0.457  0.00  0.00    +0.000 C 
BRANCH  18  20
ATOM     19  C   UNL     1       3.628  -0.367   0.235  0.00  0.00    +0.000 C 
ATOM     20  C   UNL     1       2.280  -0.039   0.813  0.00  0.00    +0.000 C 
ENDBRANCH  18  20
ENDBRANCH  17  18
ENDBRANCH  14  17
ENDBRANCH  13  14
ENDBRANCH   1  13
TORSDOF 9
ENDMDL
MODEL 9
REMARK VINA RESULT:      -4.6      2.219      6.559
REMARK  Name = shuffle_control_ligand
REMARK  12 active torsions:
REMARK  status: ('A' for Active; 'I' for Inactive)
REMARK    1  A    between atoms: C_1  and  C_2
REMARK    2  A    between atoms: C_2  and  C_3
REMARK    3  A    between atoms: C_3  and  C_4
REMARK    4  A    between atoms: C_4  and  C_5
REMARK    5  A    between atoms: C_5  and  C_6
REMARK    6  A    between atoms: C_5  and  O_8
REMARK    7  A    between atoms: C_6  and  C_7
REMARK    8  A    between atoms: O_8  and  C_9
REMARK    9  A    between atoms: C_9  and  C_11
REMARK   10  A    between atoms: C_12  and  C_13
REMARK   11  A    between atoms: C_16  and  O_17
REMARK   12  A    between atoms: O_17  and  C_18
REMARK                            x       y       z     vdW  Elec       q    Type
REMARK                         _______ _______ _______ _____ _____    ______ ____
ROOT
ATOM      1  C   UNL     1       1.246   2.724   1.695  0.00  0.00    +0.000 C 
ATOM      2  O   UNL     1       1.552   3.392   2.646  0.00  0.00    +0.000 OA
ENDROOT
BRANCH   1   3
ATOM      3  C   UNL     1       0.505   3.235   0.516  0.00  0.00    +0.000 C 
ATOM      4  C   UNL     1      -0.795   3.531   0.601  0.00  0.00    +0.000 C 
BRANCH   4   5
ATOM      5  C   UNL     1      -1.609   4.018  -0.537  0.00  0.00    +0.000 A 
ATOM      6  C   UNL     1      -2.798   3.437  -0.893  0.00  0.00    +0.000 A 
ATOM      7  C   UNL     1      -3.532   3.928  -1.969  0.00  0.00    +0.000 A 
ATOM      8  C   UNL     1      -3.075   4.999  -2.691  0.00  0.00    +0.000 A 
ATOM      9  C   UNL     1      -1.883   5.584  -2.340  0.00  0.00    +0.000 A 
ATOM     10  C   UNL     1      -1.148   5.094  -1.267  0.00  0.00    +0.000 A 
BRANCH   8  11
ATOM     11  O   UNL     1      -3.751   5.531  -3.750  0.00  0.00    +0.000 OA
ATOM     12  C   UNL     1      -3.037   6.070  -4.847  0.00  0.00    +0.000 C 
ENDBRANCH   8  11
ENDBRANCH   4   5
ENDBRANCH   1   3
BRANCH   1  13
ATOM     13  O   UNL     1       1.554   1.426   1.619  0.00  0.00    +0.000 OA
BRANCH  13  14
ATOM     14  C   UNL     1       2.828   1.020   1.162  0.00  0.00    +0.000 C 
BRANCH  14  15
ATOM     15  C   UNL     1       2.698  -0.227   0.301  0.00  0.00    +0.000 C 
ATOM     16  C   UNL     1       1.565  -0.210  -0.667  0.00  0.00    +0.000 C 
ENDBRANCH  14  15
BRANCH  14  17
ATOM     17  C   UNL     1       3.418   2.135   0.329  0.00  0.00    +0.000 C 
BRANCH  17  18
ATOM     18  C   UNL     1       4.895   2.026   0.128  0.00  0.00    +0.000 C 
BRANCH  18  20
ATOM     19  C   UNL     1       4.694   4.271   1.196  0.00  0.00    +0.000 C 
ATOM     20  C   UNL     1       5.633   3.214   0.687  0.00  0.00    +0.000 C 
ENDBRANCH  18  20
ENDBRANCH  17  18
ENDBRANCH  14  17
ENDBRANCH  13  14
ENDBRANCH   1  13
TORSDOF 9
ENDMDL
