REMARK  Name = bgox31_2_ligand
REMARK  5 active torsions:
REMARK  status: ('A' for Active; 'I' for Inactive)
REMARK    1  A    between atoms: C_1  and  O_2
REMARK    2  A    between atoms: O_2  and  C_3
REMARK    3  A    between atoms: C_6  and  C_7
REMARK    4  A    between atoms: C_7  and  C_9
REMARK    5  A    between atoms: C_15  and  O_16
REMARK                            x       y       z     vdW  Elec       q    Type
REMARK                         _______ _______ _______ _____ _____    ______ ____
ROOT
ATOM      1  C   UNL     1       3.942  -6.091  -4.288  0.00  0.00    +0.000 A 
ATOM      2  C   UNL     1       4.304  -5.538  -3.057  0.00  0.00    +0.000 A 
ATOM      3  C   UNL     1       5.233  -4.530  -2.999  0.00  0.00    +0.000 A 
ATOM      4  C   UNL     1       5.782  -4.083  -4.169  0.00  0.00    +0.000 A 
ATOM      5  C   UNL     1       5.395  -4.591  -5.398  0.00  0.00    +0.000 A 
ATOM      6  C   UNL     1       4.469  -5.588  -5.442  0.00  0.00    +0.000 A 
ENDROOT
BRANCH   1   8
ATOM      7  C   UNL     1       3.065  -7.923  -5.448  0.00  0.00    +0.000 C 
ATOM      8  O   UNL     1       3.065  -7.103  -4.306  0.00  0.00    +0.000 OA
ENDBRANCH   1   8
BRANCH   4   9
ATOM      9  C   UNL     1       6.821  -3.002  -4.081  0.00  0.00    +0.000 C 
ATOM     10  O   UNL     1       6.859  -2.187  -4.960  0.00  0.00    +0.000 OA
BRANCH   9  11
ATOM     11  C   UNL     1       7.673  -2.853  -2.937  0.00  0.00    +0.000 A 
ATOM     12  C   UNL     1       8.181  -1.597  -2.699  0.00  0.00    +0.000 A 
ATOM     13  C   UNL     1       9.053  -1.431  -1.647  0.00  0.00    +0.000 A 
ATOM     14  C   UNL     1       9.373  -2.514  -0.865  0.00  0.00    +0.000 A 
ATOM     15  C   UNL     1       8.899  -3.712  -1.107  0.00  0.00    +0.000 A 
ATOM     16  C   UNL     1       8.017  -3.882  -2.154  0.00  0.00    +0.000 A 
ENDBRANCH   9  11
ENDBRANCH   4   9
BRANCH   5  17
ATOM     17  O   UNL     1       5.928  -4.057  -6.508  0.00  0.00    +0.000 OA
ATOM     18  H   UNL     1       5.668  -4.404  -7.398  0.00  0.00    +0.000 HD
ENDBRANCH   5  17
TORSDOF 4
