MODEL 1
REMARK VINA RESULT:      -4.0      0.000      0.000
REMARK  Name = bgox31_2_ligand
REMARK  5 active torsions:
REMARK  status: ('A' for Active; 'I' for Inactive)
REMARK    1  A    between atoms: C_1  and  O_2
REMARK    2  A    between atoms: O_2  and  C_3
REMARK    3  A    between atoms: C_6  and  C_7
REMARK    4  A    between atoms: C_7  and  C_9
REMARK    5  A    between atoms: C_15  and  O_16
REMARK                            x       y       z     vdW  Elec       q    Type
REMARK                         _______ _______ _______ _____ _____    ______ ____
ROOT
ATOM      1  C   UNL     1       4.266  -0.799  -8.967  0.00  0.00    +0.000 A 
ATOM      2  C   UNL     1       4.534   0.572  -8.947  0.00  0.00    +0.000 A 
ATOM      3  C   UNL     1       4.929   1.182  -7.783  0.00  0.00    +0.000 A 
ATOM      4  C   UNL     1       5.058   0.414  -6.658  0.00  0.00    +0.000 A 
ATOM      5  C   UNL     1       4.841  -0.953  -6.679  0.00  0.00    +0.000 A 
ATOM      6  C   UNL     1       4.454  -1.546  -7.841  0.00  0.00    +0.000 A 
ENDROOT
BRANCH   1   8
ATOM      7  C   UNL     1       3.097  -0.534 -10.976  0.00  0.00    +0.000 C 
ATOM      8  O   UNL     1       3.840  -1.354 -10.109  0.00  0.00    +0.000 OA
ENDBRANCH   1   8
BRANCH   4   9
ATOM      9  C   UNL     1       5.460   1.106  -5.387  0.00  0.00    +0.000 C 
ATOM     10  O   UNL     1       6.529   0.838  -4.915  0.00  0.00    +0.000 OA
BRANCH   9  11
ATOM     11  C   UNL     1       4.665   2.145  -4.799  0.00  0.00    +0.000 A 
ATOM     12  C   UNL     1       5.315   3.308  -4.456  0.00  0.00    +0.000 A 
ATOM     13  C   UNL     1       4.596   4.302  -3.832  0.00  0.00    +0.000 A 
ATOM     14  C   UNL     1       3.259   4.108  -3.587  0.00  0.00    +0.000 A 
ATOM     15  C   UNL     1       2.648   2.991  -3.901  0.00  0.00    +0.000 A 
ATOM     16  C   UNL     1       3.361   1.996  -4.536  0.00  0.00    +0.000 A 
ENDBRANCH   9  11
ENDBRANCH   4   9
BRANCH   5  17
ATOM     17  O   UNL     1       5.052  -1.652  -5.552  0.00  0.00    +0.000 OA
ATOM     18  H   UNL     1       5.056  -2.642  -5.577  0.00  0.00    +0.000 HD
ENDBRANCH   5  17
TORSDOF 4
ENDMDL
MODEL 2
REMARK VINA RESULT:      -3.9      1.300      2.018
REMARK  Name = bgox31_2_ligand
REMARK  5 active torsions:
REMARK  status: ('A' for Active; 'I' for Inactive)
REMARK    1  A    between atoms: C_1  and  O_2
REMARK    2  A    between atoms: O_2  and  C_3
REMARK    3  A    between atoms: C_6  and  C_7
REMARK    4  A    between atoms: C_7  and  C_9
REMARK    5  A    between atoms: C_15  and  O_16
REMARK                            x       y       z     vdW  Elec       q    Type
REMARK                         _______ _______ _______ _____ _____    ______ ____
ROOT
ATOM      1  C   UNL     1       4.451  -1.349  -8.090  0.00  0.00    +0.000 A 
ATOM      2  C   UNL     1       4.573  -1.604  -6.722  0.00  0.00    +0.000 A 
ATOM      3  C   UNL     1       4.934  -0.598  -5.861  0.00  0.00    +0.000 A 
ATOM      4  C   UNL     1       5.161   0.648  -6.376  0.00  0.00    +0.000 A 
ATOM      5  C   UNL     1       4.996   0.923  -7.723  0.00  0.00    +0.000 A 
ATOM      6  C   UNL     1       4.633  -0.083  -8.566  0.00  0.00    +0.000 A 
ENDROOT
BRANCH   1   8
ATOM      7  C   UNL     1       4.906  -3.535  -8.786  0.00  0.00    +0.000 C 
ATOM      8  O   UNL     1       4.140  -2.363  -8.908  0.00  0.00    +0.000 OA
ENDBRANCH   1   8
BRANCH   4   9
ATOM      9  C   UNL     1       5.587   1.727  -5.422  0.00  0.00    +0.000 C 
ATOM     10  O   UNL     1       6.757   1.974  -5.340  0.00  0.00    +0.000 OA
BRANCH   9  11
ATOM     11  C   UNL     1       4.639   2.534  -4.709  0.00  0.00    +0.000 A 
ATOM     12  C   UNL     1       5.105   3.711  -4.170  0.00  0.00    +0.000 A 
ATOM     13  C   UNL     1       4.239   4.479  -3.426  0.00  0.00    +0.000 A 
ATOM     14  C   UNL     1       2.942   4.057  -3.260  0.00  0.00    +0.000 A 
ATOM     15  C   UNL     1       2.509   2.926  -3.761  0.00  0.00    +0.000 A 
ATOM     16  C   UNL     1       3.370   2.157  -4.516  0.00  0.00    +0.000 A 
ENDBRANCH   9  11
ENDBRANCH   4   9
BRANCH   5  17
ATOM     17  O   UNL     1       5.171   2.185  -8.145  0.00  0.00    +0.000 OA
ATOM     18  H   UNL     1       4.388   2.777  -8.272  0.00  0.00    +0.000 HD
ENDBRANCH   5  17
TORSDOF 4
ENDMDL
MODEL 3
REMARK VINA RESULT:      -3.9      1.700      5.762
REMARK  Name = bgox31_2_ligand
REMARK  5 active torsions:
REMARK  status: ('A' for Active; 'I' for Inactive)
REMARK    1  A    between atoms: C_1  and  O_2
REMARK    2  A    between atoms: O_2  and  C_3
REMARK    3  A    between atoms: C_6  and  C_7
REMARK    4  A    between atoms: C_7  and  C_9
REMARK    5  A    between atoms: C_15  and  O_16
REMARK                            x       y       z     vdW  Elec       q    Type
REMARK                         _______ _______ _______ _____ _____    ______ ____
ROOT
ATOM      1  C   UNL     1       3.816   3.872  -3.926  0.00  0.00    +0.000 A 
ATOM      2  C   UNL     1       3.061   2.730  -4.202  0.00  0.00    +0.000 A 
ATOM      3  C   UNL     1       3.649   1.638  -4.788  0.00  0.00    +0.000 A 
ATOM      4  C   UNL     1       4.983   1.697  -5.084  0.00  0.00    +0.000 A 
ATOM      5  C   UNL     1       5.751   2.806  -4.770  0.00  0.00    +0.000 A 
ATOM      6  C   UNL     1       5.156   3.882  -4.185  0.00  0.00    +0.000 A 
ENDROOT
BRANCH   1   8
ATOM      7  C   UNL     1       1.822   5.058  -3.631  0.00  0.00    +0.000 C 
ATOM      8  O   UNL     1       3.202   4.937  -3.393  0.00  0.00    +0.000 OA
ENDBRANCH   1   8
BRANCH   4   9
ATOM      9  C   UNL     1       5.601   0.504  -5.755  0.00  0.00    +0.000 C 
ATOM     10  O   UNL     1       6.549  -0.008  -5.229  0.00  0.00    +0.000 OA
BRANCH   9  11
ATOM     11  C   UNL     1       5.025  -0.098  -6.923  0.00  0.00    +0.000 A 
ATOM     12  C   UNL     1       4.705  -1.433  -6.840  0.00  0.00    +0.000 A 
ATOM     13  C   UNL     1       4.210  -2.059  -7.962  0.00  0.00    +0.000 A 
ATOM     14  C   UNL     1       4.038  -1.332  -9.114  0.00  0.00    +0.000 A 
ATOM     15  C   UNL     1       4.361  -0.063  -9.191  0.00  0.00    +0.000 A 
ATOM     16  C   UNL     1       4.848   0.571  -8.068  0.00  0.00    +0.000 A 
ENDBRANCH   9  11
ENDBRANCH   4   9
BRANCH   5  17
ATOM     17  O   UNL     1       7.068   2.767  -5.029  0.00  0.00    +0.000 OA
ATOM     18  H   UNL     1       7.498   1.911  -5.278  0.00  0.00    +0.000 HD
ENDBRANCH   5  17
TORSDOF 4
ENDMDL
MODEL 4
REMARK VINA RESULT:      -3.6     10.679     12.424
REMARK  Name = bgox31_2_ligand
REMARK  5 active torsions:
REMARK  status: ('A' for Active; 'I' for Inactive)
REMARK    1  A    between atoms: C_1  and  O_2
REMARK    2  A    between atoms: O_2  and  C_3
REMARK    3  A    between atoms: C_6  and  C_7
REMARK    4  A    between atoms: C_7  and  C_9
REMARK    5  A    between atoms: C_15  and  O_16
REMARK                            x       y       z     vdW  Elec       q    Type
REMARK                         _______ _______ _______ _____ _____    ______ ____
ROOT
ATOM      1  C   UNL     1      -2.404  -4.526   1.429  0.00  0.00    +0.000 A 
ATOM      2  C   UNL     1      -1.431  -5.286   2.083  0.00  0.00    +0.000 A 
ATOM      3  C   UNL     1      -0.893  -6.391   1.475  0.00  0.00    +0.000 A 
ATOM      4  C   UNL     1      -1.327  -6.720   0.220  0.00  0.00    +0.000 A 
ATOM      5  C   UNL     1      -2.256  -5.947  -0.457  0.00  0.00    +0.000 A 
ATOM      6  C   UNL     1      -2.779  -4.849   0.157  0.00  0.00    +0.000 A 
ENDROOT
BRANCH   1   8
ATOM      7  C   UNL     1      -3.977  -2.795   1.408  0.00  0.00    +0.000 C 
ATOM      8  O   UNL     1      -2.940  -3.479   2.068  0.00  0.00    +0.000 OA
ENDBRANCH   1   8
BRANCH   4   9
ATOM      9  C   UNL     1      -0.750  -7.952  -0.415  0.00  0.00    +0.000 C 
ATOM     10  O   UNL     1      -1.508  -8.820  -0.747  0.00  0.00    +0.000 OA
BRANCH   9  11
ATOM     11  C   UNL     1       0.643  -8.065  -0.736  0.00  0.00    +0.000 A 
ATOM     12  C   UNL     1       0.998  -7.853  -2.048  0.00  0.00    +0.000 A 
ATOM     13  C   UNL     1       2.318  -8.016  -2.404  0.00  0.00    +0.000 A 
ATOM     14  C   UNL     1       3.233  -8.367  -1.442  0.00  0.00    +0.000 A 
ATOM     15  C   UNL     1       2.886  -8.584  -0.197  0.00  0.00    +0.000 A 
ATOM     16  C   UNL     1       1.566  -8.412   0.168  0.00  0.00    +0.000 A 
ENDBRANCH   9  11
ENDBRANCH   4   9
BRANCH   5  17
ATOM     17  O   UNL     1      -2.585  -6.293  -1.711  0.00  0.00    +0.000 OA
ATOM     18  H   UNL     1      -3.467  -6.702  -1.896  0.00  0.00    +0.000 HD
ENDBRANCH   5  17
TORSDOF 4
ENDMDL
MODEL 5
REMARK VINA RESULT:      -3.6      2.302      3.671
REMARK  Name = bgox31_2_ligand
REMARK  5 active torsions:
REMARK  status: ('A' for Active; 'I' for Inactive)
REMARK    1  A    between atoms: C_1  and  O_2
REMARK    2  A    between atoms: O_2  and  C_3
REMARK    3  A    between atoms: C_6  and  C_7
REMARK    4  A    between atoms: C_7  and  C_9
REMARK    5  A    between atoms: C_15  and  O_16
REMARK                            x       y       z     vdW  Elec       q    Type
REMARK                         _______ _______ _______ _____ _____    ______ ____
ROOT
ATOM      1  C   UNL     1       6.730  -1.354  -5.322  0.00  0.00    +0.000 A 
ATOM      2  C   UNL     1       5.402  -1.553  -5.708  0.00  0.00    +0.000 A 
ATOM      3  C   UNL     1       4.645  -0.496  -6.149  0.00  0.00    +0.000 A 
ATOM      4  C   UNL     1       5.226   0.741  -6.206  0.00  0.00    +0.000 A 
ATOM      5  C   UNL     1       6.555   0.939  -5.872  0.00  0.00    +0.000 A 
ATOM      6  C   UNL     1       7.296  -0.118  -5.440  0.00  0.00    +0.000 A 
ENDROOT
BRANCH   1   8
ATOM      7  C   UNL     1       6.815  -3.660  -4.942  0.00  0.00    +0.000 C 
ATOM      8  O   UNL     1       7.427  -2.398  -4.856  0.00  0.00    +0.000 OA
ENDBRANCH   1   8
BRANCH   4   9
ATOM      9  C   UNL     1       4.371   1.889  -6.660  0.00  0.00    +0.000 C 
ATOM     10  O   UNL     1       4.381   2.170  -7.826  0.00  0.00    +0.000 OA
BRANCH   9  11
ATOM     11  C   UNL     1       3.471   2.569  -5.773  0.00  0.00    +0.000 A 
ATOM     12  C   UNL     1       2.675   3.546  -6.324  0.00  0.00    +0.000 A 
ATOM     13  C   UNL     1       1.845   4.262  -5.491  0.00  0.00    +0.000 A 
ATOM     14  C   UNL     1       1.828   3.969  -4.149  0.00  0.00    +0.000 A 
ATOM     15  C   UNL     1       2.602   3.048  -3.628  0.00  0.00    +0.000 A 
ATOM     16  C   UNL     1       3.428   2.321  -4.459  0.00  0.00    +0.000 A 
ENDBRANCH   9  11
ENDBRANCH   4   9
BRANCH   5  17
ATOM     17  O   UNL     1       7.075   2.169  -6.016  0.00  0.00    +0.000 OA
ATOM     18  H   UNL     1       7.396   2.666  -5.223  0.00  0.00    +0.000 HD
ENDBRANCH   5  17
TORSDOF 4
ENDMDL
MODEL 6
REMARK VINA RESULT:      -3.6     10.448     12.346
REMARK  Name = bgox31_2_ligand
REMARK  5 active torsions:
REMARK  status: ('A' for Active; 'I' for Inactive)
REMARK    1  A    between atoms: C_1  and  O_2
REMARK    2  A    between atoms: O_2  and  C_3
REMARK    3  A    between atoms: C_6  and  C_7
REMARK    4  A    between atoms: C_7  and  C_9
REMARK    5  A    between atoms: C_15  and  O_16
REMARK                            x       y       z     vdW  Elec       q    Type
REMARK                         _______ _______ _______ _____ _____    ______ ____
ROOT
ATOM      1  C   UNL     1      -2.186  -5.582   0.397  0.00  0.00    +0.000 A 
ATOM      2  C   UNL     1      -2.473  -6.219  -0.813  0.00  0.00    +0.000 A 
ATOM      3  C   UNL     1      -1.737  -7.306  -1.213  0.00  0.00    +0.000 A 
ATOM      4  C   UNL     1      -0.731  -7.746  -0.398  0.00  0.00    +0.000 A 
ATOM      5  C   UNL     1      -0.470  -7.152   0.825  0.00  0.00    +0.000 A 
ATOM      6  C   UNL     1      -1.210  -6.077   1.212  0.00  0.00    +0.000 A 
ENDROOT
BRANCH   1   8
ATOM      7  C   UNL     1      -2.635  -3.940   2.001  0.00  0.00    +0.000 C 
ATOM      8  O   UNL     1      -2.895  -4.498   0.737  0.00  0.00    +0.000 OA
ENDBRANCH   1   8
BRANCH   4   9
ATOM      9  C   UNL     1       0.083  -8.916  -0.870  0.00  0.00    +0.000 C 
ATOM     10  O   UNL     1      -0.067  -9.967  -0.311  0.00  0.00    +0.000 OA
BRANCH   9  11
ATOM     11  C   UNL     1       0.932  -8.841  -2.024  0.00  0.00    +0.000 A 
ATOM     12  C   UNL     1       1.880  -7.844  -2.035  0.00  0.00    +0.000 A 
ATOM     13  C   UNL     1       2.669  -7.702  -3.153  0.00  0.00    +0.000 A 
ATOM     14  C   UNL     1       2.496  -8.564  -4.209  0.00  0.00    +0.000 A 
ATOM     15  C   UNL     1       1.580  -9.501  -4.199  0.00  0.00    +0.000 A 
ATOM     16  C   UNL     1       0.793  -9.654  -3.077  0.00  0.00    +0.000 A 
ENDBRANCH   9  11
ENDBRANCH   4   9
BRANCH   5  17
ATOM     17  O   UNL     1       0.489  -7.680   1.602  0.00  0.00    +0.000 OA
ATOM     18  H   UNL     1       1.428  -7.385   1.497  0.00  0.00    +0.000 HD
ENDBRANCH   5  17
TORSDOF 4
ENDMDL
MODEL 7
REMARK VINA RESULT:      -3.5     10.856     12.825
REMARK  Name = bgox31_2_ligand
REMARK  5 active torsions:
REMARK  status: ('A' for Active; 'I' for Inactive)
REMARK    1  A    between atoms: C_1  and  O_2
REMARK    2  A    between atoms: O_2  and  C_3
REMARK    3  A    between atoms: C_6  and  C_7
REMARK    4  A    between atoms: C_7  and  C_9
REMARK    5  A    between atoms: C_15  and  O_16
REMARK                            x       y       z     vdW  Elec       q    Type
REMARK                         _______ _______ _______ _____ _____    ______ ____
ROOT
ATOM      1  C   UNL     1      -1.609 -11.679  -8.704  0.00  0.00    +0.000 A 
ATOM      2  C   UNL     1      -1.969 -10.878  -7.617  0.00  0.00    +0.000 A 
ATOM      3  C   UNL     1      -1.175 -10.833  -6.499  0.00  0.00    +0.000 A 
ATOM      4  C   UNL     1      -0.029 -11.579  -6.485  0.00  0.00    +0.000 A 
ATOM      5  C   UNL     1       0.362 -12.338  -7.575  0.00  0.00    +0.000 A 
ATOM      6  C   UNL     1      -0.433 -12.371  -8.680  0.00  0.00    +0.000 A 
ENDROOT
BRANCH   1   8
ATOM      7  C   UNL     1      -2.945 -12.998 -10.099  0.00  0.00    +0.000 C 
ATOM      8  O   UNL     1      -2.428 -11.735  -9.762  0.00  0.00    +0.000 OA
ENDBRANCH   1   8
BRANCH   4   9
ATOM      9  C   UNL     1       0.810 -11.540  -5.239  0.00  0.00    +0.000 C 
ATOM     10  O   UNL     1       1.137 -12.585  -4.750  0.00  0.00    +0.000 OA
BRANCH   9  11
ATOM     11  C   UNL     1       1.318 -10.313  -4.699  0.00  0.00    +0.000 A 
ATOM     12  C   UNL     1       2.247  -9.638  -5.455  0.00  0.00    +0.000 A 
ATOM     13  C   UNL     1       2.804  -8.489  -4.939  0.00  0.00    +0.000 A 
ATOM     14  C   UNL     1       2.405  -8.050  -3.700  0.00  0.00    +0.000 A 
ATOM     15  C   UNL     1       1.531  -8.707  -2.976  0.00  0.00    +0.000 A 
ATOM     16  C   UNL     1       0.963  -9.853  -3.493  0.00  0.00    +0.000 A 
ENDBRANCH   9  11
ENDBRANCH   4   9
BRANCH   5  17
ATOM     17  O   UNL     1       1.533 -12.991  -7.514  0.00  0.00    +0.000 OA
ATOM     18  H   UNL     1       2.384 -12.488  -7.570  0.00  0.00    +0.000 HD
ENDBRANCH   5  17
TORSDOF 4
ENDMDL
MODEL 8
REMARK VINA RESULT:      -3.5     11.564     12.607
REMARK  Name = bgox31_2_ligand
REMARK  5 active torsions:
REMARK  status: ('A' for Active; 'I' for Inactive)
REMARK    1  A    between atoms: C_1  and  O_2
REMARK    2  A    between atoms: O_2  and  C_3
REMARK    3  A    between atoms: C_6  and  C_7
REMARK    4  A    between atoms: C_7  and  C_9
REMARK    5  A    between atoms: C_15  and  O_16
REMARK                            x       y       z     vdW  Elec       q    Type
REMARK                         _______ _______ _______ _____ _____    ______ ____
ROOT
ATOM      1  C   UNL     1      -1.830  -5.804   0.331  0.00  0.00    +0.000 A 
ATOM      2  C   UNL     1      -2.162  -4.727   1.158  0.00  0.00    +0.000 A 
ATOM      3  C   UNL     1      -1.760  -4.713   2.469  0.00  0.00    +0.000 A 
ATOM      4  C   UNL     1      -1.028  -5.769   2.936  0.00  0.00    +0.000 A 
ATOM      5  C   UNL     1      -0.653  -6.819   2.114  0.00  0.00    +0.000 A 
ATOM      6  C   UNL     1      -1.054  -6.818   0.813  0.00  0.00    +0.000 A 
ENDROOT
BRANCH   1   8
ATOM      7  C   UNL     1      -2.667  -7.047  -1.464  0.00  0.00    +0.000 C 
ATOM      8  O   UNL     1      -2.275  -5.807  -0.932  0.00  0.00    +0.000 OA
ENDBRANCH   1   8
BRANCH   4   9
ATOM      9  C   UNL     1      -0.626  -5.751   4.384  0.00  0.00    +0.000 C 
ATOM     10  O   UNL     1      -1.148  -6.540   5.121  0.00  0.00    +0.000 OA
BRANCH   9  11
ATOM     11  C   UNL     1       0.430  -4.913   4.872  0.00  0.00    +0.000 A 
ATOM     12  C   UNL     1       0.225  -4.297   6.085  0.00  0.00    +0.000 A 
ATOM     13  C   UNL     1       1.190  -3.435   6.554  0.00  0.00    +0.000 A 
ATOM     14  C   UNL     1       2.326  -3.232   5.810  0.00  0.00    +0.000 A 
ATOM     15  C   UNL     1       2.509  -3.809   4.647  0.00  0.00    +0.000 A 
ATOM     16  C   UNL     1       1.549  -4.681   4.176  0.00  0.00    +0.000 A 
ENDBRANCH   9  11
ENDBRANCH   4   9
BRANCH   5  17
ATOM     17  O   UNL     1       0.123  -7.788   2.625  0.00  0.00    +0.000 OA
ATOM     18  H   UNL     1       0.669  -8.353   2.023  0.00  0.00    +0.000 HD
ENDBRANCH   5  17
TORSDOF 4
ENDMDL
MODEL 9
REMARK VINA RESULT:      -3.5      8.075     10.565
REMARK  Name = bgox31_2_ligand
REMARK  5 active torsions:
REMARK  status: ('A' for Active; 'I' for Inactive)
REMARK    1  A    between atoms: C_1  and  O_2
REMARK    2  A    between atoms: O_2  and  C_3
REMARK    3  A    between atoms: C_6  and  C_7
REMARK    4  A    between atoms: C_7  and  C_9
REMARK    5  A    between atoms: C_15  and  O_16
REMARK                            x       y       z     vdW  Elec       q    Type
REMARK                         _______ _______ _______ _____ _____    ______ ____
ROOT
ATOM      1  C   UNL     1       7.571   1.555   3.617  0.00  0.00    +0.000 A 
ATOM      2  C   UNL     1       7.024   1.644   2.334  0.00  0.00    +0.000 A 
ATOM      3  C   UNL     1       7.280   0.667   1.405  0.00  0.00    +0.000 A 
ATOM      4  C   UNL     1       8.072  -0.387   1.770  0.00  0.00    +0.000 A 
ATOM      5  C   UNL     1       8.579  -0.509   3.053  0.00  0.00    +0.000 A 
ATOM      6  C   UNL     1       8.314   0.465   3.967  0.00  0.00    +0.000 A 
ENDROOT
BRANCH   1   8
ATOM      7  C   UNL     1       8.416   3.398   4.784  0.00  0.00    +0.000 C 
ATOM      8  O   UNL     1       7.337   2.547   4.486  0.00  0.00    +0.000 OA
ENDBRANCH   1   8
BRANCH   4   9
ATOM      9  C   UNL     1       8.367  -1.428   0.729  0.00  0.00    +0.000 C 
ATOM     10  O   UNL     1       9.458  -1.430   0.231  0.00  0.00    +0.000 OA
BRANCH   9  11
ATOM     11  C   UNL     1       7.437  -2.471   0.407  0.00  0.00    +0.000 A 
ATOM     12  C   UNL     1       7.708  -3.222  -0.714  0.00  0.00    +0.000 A 
ATOM     13  C   UNL     1       6.804  -4.189  -1.089  0.00  0.00    +0.000 A 
ATOM     14  C   UNL     1       5.676  -4.384  -0.328  0.00  0.00    +0.000 A 
ATOM     15  C   UNL     1       5.416  -3.654   0.729  0.00  0.00    +0.000 A 
ATOM     16  C   UNL     1       6.323  -2.689   1.115  0.00  0.00    +0.000 A 
ENDBRANCH   9  11
ENDBRANCH   4   9
BRANCH   5  17
ATOM     17  O   UNL     1       9.292  -1.604   3.358  0.00  0.00    +0.000 OA
ATOM     18  H   UNL     1       8.893  -2.502   3.243  0.00  0.00    +0.000 HD
ENDBRANCH   5  17
TORSDOF 4
ENDMDL
