REMARK  Name = ox1_esm1_f8_ligand
REMARK  5 active torsions:
REMARK  status: ('A' for Active; 'I' for Inactive)
REMARK    1  A    between atoms: C_1  and  O_2
REMARK    2  A    between atoms: O_2  and  C_3
REMARK    3  A    between atoms: C_6  and  C_7
REMARK    4  A    between atoms: C_7  and  C_9
REMARK    5  A    between atoms: C_15  and  O_16
REMARK                            x       y       z     vdW  Elec       q    Type
REMARK                         _______ _______ _______ _____ _____    ______ ____
ROOT
ATOM      1  C   UNL     1       4.241  -1.750   6.654  0.00  0.00    +0.000 A 
ATOM      2  C   UNL     1       3.674  -1.836   5.383  0.00  0.00    +0.000 A 
ATOM      3  C   UNL     1       4.262  -2.630   4.408  0.00  0.00    +0.000 A 
ATOM      4  C   UNL     1       5.409  -3.356   4.681  0.00  0.00    +0.000 A 
ATOM      5  C   UNL     1       5.993  -3.270   5.962  0.00  0.00    +0.000 A 
ATOM      6  C   UNL     1       5.396  -2.464   6.930  0.00  0.00    +0.000 A 
ENDROOT
BRANCH   1   8
ATOM      7  C   UNL     1       4.153  -0.821   8.902  0.00  0.00    +0.000 C 
ATOM      8  O   UNL     1       3.621  -0.964   7.581  0.00  0.00    +0.000 OA
ENDBRANCH   1   8
BRANCH   4   9
ATOM      9  C   UNL     1       6.028  -4.223   3.627  0.00  0.00    +0.000 C 
ATOM     10  O   UNL     1       7.131  -4.724   3.831  0.00  0.00    +0.000 OA
BRANCH   9  11
ATOM     11  C   UNL     1       5.334  -4.464   2.327  0.00  0.00    +0.000 A 
ATOM     12  C   UNL     1       5.922  -4.146   1.157  0.00  0.00    +0.000 A 
ATOM     13  C   UNL     1       5.356  -4.373  -0.084  0.00  0.00    +0.000 A 
ATOM     14  C   UNL     1       4.098  -4.921  -0.145  0.00  0.00    +0.000 A 
ATOM     15  C   UNL     1       3.450  -5.250   1.038  0.00  0.00    +0.000 A 
ATOM     16  C   UNL     1       4.073  -5.014   2.263  0.00  0.00    +0.000 A 
ENDBRANCH   9  11
ENDBRANCH   4   9
BRANCH   5  17
ATOM     17  O   UNL     1       7.134  -3.970   6.227  0.00  0.00    +0.000 OA
ATOM     18  H   UNL     1       7.551  -3.916   7.123  0.00  0.00    +0.000 HD
ENDBRANCH   5  17
TORSDOF 4
