REMARK  Name = /Users/cafierom/python_mac/peptidebuilder/runs/oxybenzone/dock/ox1_esm1_f8_rf3apo/ox1_esm1_f8_rf3apo_protein.pdb
REMARK                            x       y       z     vdW  Elec       q    Type
REMARK                         _______ _______ _______ _____ _____    ______ ____
ATOM      1  N   PHE A   1      -8.491  -0.847  10.448  0.00  0.00    +0.000 NA
ATOM      2  CA  PHE A   1      -8.782  -1.484   9.187  0.00  0.00    +0.000 C 
ATOM      3  C   PHE A   1      -9.024  -0.492   8.068  0.00  0.00    +0.000 C 
ATOM      4  O   PHE A   1      -8.514  -0.682   6.963  0.00  0.00    +0.000 OA
ATOM      5  CB  PHE A   1     -10.031  -2.395   9.325  0.00  0.00    +0.000 C 
ATOM      6  CG  PHE A   1      -9.726  -3.736   9.977  0.00  0.00    +0.000 A 
ATOM      7  CD1 PHE A   1      -9.147  -4.731   9.255  0.00  0.00    +0.000 A 
ATOM      8  CD2 PHE A   1     -10.089  -3.982  11.298  0.00  0.00    +0.000 A 
ATOM      9  CE1 PHE A   1      -8.854  -5.957   9.805  0.00  0.00    +0.000 A 
ATOM     10  CE2 PHE A   1      -9.795  -5.231  11.884  0.00  0.00    +0.000 A 
ATOM     11  CZ  PHE A   1      -9.195  -6.211  11.117  0.00  0.00    +0.000 A 
ATOM     12  N   PRO A   2      -9.482   0.659   8.377  0.00  0.00    +0.000 N 
ATOM     13  CA  PRO A   2      -9.701   1.646   7.325  0.00  0.00    +0.000 C 
ATOM     14  C   PRO A   2      -8.390   2.217   6.803  0.00  0.00    +0.000 C 
ATOM     15  O   PRO A   2      -8.226   2.462   5.592  0.00  0.00    +0.000 OA
ATOM     16  CB  PRO A   2     -10.539   2.715   7.996  0.00  0.00    +0.000 C 
ATOM     17  CG  PRO A   2     -11.150   2.029   9.175  0.00  0.00    +0.000 C 
ATOM     18  CD  PRO A   2     -10.286   0.963   9.615  0.00  0.00    +0.000 C 
ATOM     19  N   ARG A   3      -7.408   2.312   7.654  0.00  0.00    +0.000 N 
ATOM     20  CA  ARG A   3      -6.137   2.897   7.252  0.00  0.00    +0.000 C 
ATOM     21  C   ARG A   3      -5.380   1.958   6.348  0.00  0.00    +0.000 C 
ATOM     22  O   ARG A   3      -4.783   2.369   5.349  0.00  0.00    +0.000 OA
ATOM     23  CB  ARG A   3      -5.306   3.235   8.487  0.00  0.00    +0.000 C 
ATOM     24  CG  ARG A   3      -5.781   4.443   9.247  0.00  0.00    +0.000 C 
ATOM     25  CD  ARG A   3      -4.811   4.822  10.354  0.00  0.00    +0.000 C 
ATOM     26  NE  ARG A   3      -5.264   5.976  11.132  0.00  0.00    +0.000 NA
ATOM     27  CZ  ARG A   3      -4.624   6.549  12.133  0.00  0.00    +0.000 C 
ATOM     28  NH1 ARG A   3      -3.455   6.055  12.548  0.00  0.00    +0.000 N 
ATOM     29  NH2 ARG A   3      -5.144   7.554  12.761  0.00  0.00    +0.000 NA
ATOM     30  N   LEU A   4      -5.465   0.707   6.625  0.00  0.00    +0.000 N 
ATOM     31  CA  LEU A   4      -4.768  -0.286   5.805  0.00  0.00    +0.000 C 
ATOM     32  C   LEU A   4      -5.396  -0.378   4.420  0.00  0.00    +0.000 C 
ATOM     33  O   LEU A   4      -4.689  -0.507   3.422  0.00  0.00    +0.000 OA
ATOM     34  CB  LEU A   4      -4.828  -1.657   6.497  0.00  0.00    +0.000 C 
ATOM     35  CG  LEU A   4      -3.910  -1.830   7.701  0.00  0.00    +0.000 C 
ATOM     36  CD1 LEU A   4      -4.190  -3.167   8.364  0.00  0.00    +0.000 C 
ATOM     37  CD2 LEU A   4      -2.446  -1.726   7.284  0.00  0.00    +0.000 C 
ATOM     38  N   LYS A   5      -6.674  -0.258   4.402  0.00  0.00    +0.000 N 
ATOM     39  CA  LYS A   5      -7.378  -0.302   3.137  0.00  0.00    +0.000 C 
ATOM     40  C   LYS A   5      -7.033   0.897   2.282  0.00  0.00    +0.000 C 
ATOM     41  O   LYS A   5      -6.792   0.775   1.081  0.00  0.00    +0.000 OA
ATOM     42  CB  LYS A   5      -8.888  -0.364   3.367  0.00  0.00    +0.000 C 
ATOM     43  CG  LYS A   5      -9.687  -0.588   2.103  0.00  0.00    +0.000 C 
ATOM     44  CD  LYS A   5     -11.164  -0.780   2.406  0.00  0.00    +0.000 C 
ATOM     45  CE  LYS A   5     -11.974  -0.973   1.119  0.00  0.00    +0.000 C 
ATOM     46  NZ  LYS A   5     -13.449  -1.179   1.437  0.00  0.00    +0.000 N 
ATOM     47  N   LEU A   6      -6.960   2.034   2.899  0.00  0.00    +0.000 N 
ATOM     48  CA  LEU A   6      -6.641   3.255   2.172  0.00  0.00    +0.000 C 
ATOM     49  C   LEU A   6      -5.228   3.202   1.596  0.00  0.00    +0.000 C 
ATOM     50  O   LEU A   6      -4.993   3.590   0.459  0.00  0.00    +0.000 OA
ATOM     51  CB  LEU A   6      -6.768   4.471   3.103  0.00  0.00    +0.000 C 
ATOM     52  CG  LEU A   6      -8.195   4.925   3.410  0.00  0.00    +0.000 C 
ATOM     53  CD1 LEU A   6      -8.184   5.991   4.482  0.00  0.00    +0.000 C 
ATOM     54  CD2 LEU A   6      -8.848   5.451   2.120  0.00  0.00    +0.000 C 
ATOM     55  N   LYS A   7      -4.362   2.703   2.391  0.00  0.00    +0.000 N 
ATOM     56  CA  LYS A   7      -2.977   2.560   1.932  0.00  0.00    +0.000 C 
ATOM     57  C   LYS A   7      -2.885   1.613   0.753  0.00  0.00    +0.000 C 
ATOM     58  O   LYS A   7      -2.220   1.904  -0.239  0.00  0.00    +0.000 OA
ATOM     59  CB  LYS A   7      -2.097   2.056   3.061  0.00  0.00    +0.000 C 
ATOM     60  CG  LYS A   7      -0.629   2.003   2.708  0.00  0.00    +0.000 C 
ATOM     61  CD  LYS A   7       0.214   1.559   3.891  0.00  0.00    +0.000 C 
ATOM     62  CE  LYS A   7       1.685   1.455   3.519  0.00  0.00    +0.000 C 
ATOM     63  NZ  LYS A   7       2.506   0.994   4.671  0.00  0.00    +0.000 N 
ATOM     64  N   SER A   8      -3.530   0.496   0.861  0.00  0.00    +0.000 N 
ATOM     65  CA  SER A   8      -3.538  -0.472  -0.230  0.00  0.00    +0.000 C 
ATOM     66  C   SER A   8      -4.139   0.119  -1.500  0.00  0.00    +0.000 C 
ATOM     67  O   SER A   8      -3.590  -0.070  -2.583  0.00  0.00    +0.000 OA
ATOM     68  CB  SER A   8      -4.326  -1.718   0.179  0.00  0.00    +0.000 C 
ATOM     69  OG  SER A   8      -4.343  -2.664  -0.877  0.00  0.00    +0.000 OA
ATOM     70  N   ASP A   9      -5.172   0.859  -1.360  0.00  0.00    +0.000 N 
ATOM     71  CA  ASP A   9      -5.830   1.498  -2.486  0.00  0.00    +0.000 C 
ATOM     72  C   ASP A   9      -4.922   2.533  -3.124  0.00  0.00    +0.000 C 
ATOM     73  O   ASP A   9      -4.795   2.619  -4.362  0.00  0.00    +0.000 OA
ATOM     74  CB  ASP A   9      -7.143   2.145  -2.074  0.00  0.00    +0.000 C 
ATOM     75  CG  ASP A   9      -8.206   1.129  -1.794  0.00  0.00    +0.000 C 
ATOM     76  OD1 ASP A   9      -8.065  -0.051  -2.140  0.00  0.00    +0.000 OA
ATOM     77  OD2 ASP A   9      -9.268   1.534  -1.216  0.00  0.00    +0.000 OA
ATOM     78  N   ALA A  10      -4.266   3.320  -2.283  0.00  0.00    +0.000 N 
ATOM     79  CA  ALA A  10      -3.356   4.326  -2.781  0.00  0.00    +0.000 C 
ATOM     80  C   ALA A  10      -2.199   3.697  -3.551  0.00  0.00    +0.000 C 
ATOM     81  O   ALA A  10      -1.797   4.192  -4.587  0.00  0.00    +0.000 OA
ATOM     82  CB  ALA A  10      -2.821   5.158  -1.607  0.00  0.00    +0.000 C 
ATOM     83  N   GLU A  11      -1.691   2.640  -3.046  0.00  0.00    +0.000 N 
ATOM     84  CA  GLU A  11      -0.606   1.919  -3.719  0.00  0.00    +0.000 C 
ATOM     85  C   GLU A  11      -1.039   1.372  -5.047  0.00  0.00    +0.000 C 
ATOM     86  O   GLU A  11      -0.283   1.441  -6.035  0.00  0.00    +0.000 OA
ATOM     87  CB  GLU A  11      -0.087   0.778  -2.827  0.00  0.00    +0.000 C 
ATOM     88  CG  GLU A  11       0.693   1.257  -1.634  0.00  0.00    +0.000 C 
ATOM     89  CD  GLU A  11       1.144   0.135  -0.699  0.00  0.00    +0.000 C 
ATOM     90  OE1 GLU A  11       1.911   0.389   0.238  0.00  0.00    +0.000 OA
ATOM     91  OE2 GLU A  11       0.707  -1.018  -0.940  0.00  0.00    +0.000 OA
ATOM     92  N   ALA A  12      -2.223   0.855  -5.082  0.00  0.00    +0.000 N 
ATOM     93  CA  ALA A  12      -2.761   0.326  -6.316  0.00  0.00    +0.000 C 
ATOM     94  C   ALA A  12      -2.894   1.425  -7.386  0.00  0.00    +0.000 C 
ATOM     95  O   ALA A  12      -2.536   1.230  -8.547  0.00  0.00    +0.000 OA
ATOM     96  CB  ALA A  12      -4.104  -0.333  -6.083  0.00  0.00    +0.000 C 
ATOM     97  N   ILE A  13      -3.362   2.555  -6.953  0.00  0.00    +0.000 N 
ATOM     98  CA  ILE A  13      -3.518   3.687  -7.850  0.00  0.00    +0.000 C 
ATOM     99  C   ILE A  13      -2.169   4.169  -8.343  0.00  0.00    +0.000 C 
ATOM    100  O   ILE A  13      -1.977   4.413  -9.550  0.00  0.00    +0.000 OA
ATOM    101  CB  ILE A  13      -4.269   4.848  -7.144  0.00  0.00    +0.000 C 
ATOM    102  CG1 ILE A  13      -5.722   4.438  -6.882  0.00  0.00    +0.000 C 
ATOM    103  CG2 ILE A  13      -4.208   6.121  -8.011  0.00  0.00    +0.000 C 
ATOM    104  CD1 ILE A  13      -6.468   5.406  -5.964  0.00  0.00    +0.000 C 
ATOM    105  N   ALA A  14      -1.228   4.284  -7.435  0.00  0.00    +0.000 N 
ATOM    106  CA  ALA A  14       0.112   4.710  -7.797  0.00  0.00    +0.000 C 
ATOM    107  C   ALA A  14       0.750   3.768  -8.801  0.00  0.00    +0.000 C 
ATOM    108  O   ALA A  14       1.385   4.208  -9.766  0.00  0.00    +0.000 OA
ATOM    109  CB  ALA A  14       0.978   4.796  -6.554  0.00  0.00    +0.000 C 
ATOM    110  N   SER A  15       0.587   2.514  -8.568  0.00  0.00    +0.000 N 
ATOM    111  CA  SER A  15       1.126   1.510  -9.492  0.00  0.00    +0.000 C 
ATOM    112  C   SER A  15       0.529   1.637 -10.882  0.00  0.00    +0.000 C 
ATOM    113  O   SER A  15       1.226   1.493 -11.895  0.00  0.00    +0.000 OA
ATOM    114  CB  SER A  15       0.854   0.100  -8.937  0.00  0.00    +0.000 C 
ATOM    115  OG  SER A  15       1.393  -0.876  -9.828  0.00  0.00    +0.000 OA
ATOM    116  N   ARG A  16      -0.703   1.993 -10.956  0.00  0.00    +0.000 N 
ATOM    117  CA  ARG A  16      -1.386   2.151 -12.245  0.00  0.00    +0.000 C 
ATOM    118  C   ARG A  16      -0.914   3.399 -12.962  0.00  0.00    +0.000 C 
ATOM    119  O   ARG A  16      -0.796   3.416 -14.180  0.00  0.00    +0.000 OA
ATOM    120  CB  ARG A  16      -2.896   2.200 -12.050  0.00  0.00    +0.000 C 
ATOM    121  CG  ARG A  16      -3.502   0.841 -11.703  0.00  0.00    +0.000 C 
ATOM    122  CD  ARG A  16      -5.022   0.923 -11.597  0.00  0.00    +0.000 C 
ATOM    123  NE  ARG A  16      -5.608  -0.387 -11.292  0.00  0.00    +0.000 NA
ATOM    124  CZ  ARG A  16      -6.918  -0.594 -11.059  0.00  0.00    +0.000 C 
ATOM    125  NH1 ARG A  16      -7.773   0.396 -11.106  0.00  0.00    +0.000 N 
ATOM    126  NH2 ARG A  16      -7.329  -1.805 -10.765  0.00  0.00    +0.000 NA
ATOM    127  N   LEU A  17      -0.634   4.443 -12.217  0.00  0.00    +0.000 N 
ATOM    128  CA  LEU A  17      -0.286   5.716 -12.811  0.00  0.00    +0.000 C 
ATOM    129  C   LEU A  17       1.144   5.734 -13.292  0.00  0.00    +0.000 C 
ATOM    130  O   LEU A  17       1.447   6.267 -14.383  0.00  0.00    +0.000 OA
ATOM    131  CB  LEU A  17      -0.503   6.850 -11.768  0.00  0.00    +0.000 C 
ATOM    132  CG  LEU A  17      -1.946   7.224 -11.504  0.00  0.00    +0.000 C 
ATOM    133  CD1 LEU A  17      -2.022   8.220 -10.301  0.00  0.00    +0.000 C 
ATOM    134  CD2 LEU A  17      -2.617   7.781 -12.701  0.00  0.00    +0.000 C 
ATOM    135  N   ASP A  18       2.023   5.120 -12.558  0.00  0.00    +0.000 N 
ATOM    136  CA  ASP A  18       3.422   5.292 -12.948  0.00  0.00    +0.000 C 
ATOM    137  C   ASP A  18       4.107   3.965 -13.180  0.00  0.00    +0.000 C 
ATOM    138  O   ASP A  18       5.327   3.913 -13.493  0.00  0.00    +0.000 OA
ATOM    139  CB  ASP A  18       4.149   6.068 -11.847  0.00  0.00    +0.000 C 
ATOM    140  CG  ASP A  18       4.196   5.351 -10.520  0.00  0.00    +0.000 C 
ATOM    141  OD1 ASP A  18       3.783   4.180 -10.428  0.00  0.00    +0.000 OA
ATOM    142  OD2 ASP A  18       4.654   5.975  -9.512  0.00  0.00    +0.000 OA
ATOM    143  N   GLY A  19       3.349   2.882 -13.089  0.00  0.00    +0.000 N 
ATOM    144  CA  GLY A  19       3.931   1.578 -13.313  0.00  0.00    +0.000 C 
ATOM    145  C   GLY A  19       4.850   1.109 -12.200  0.00  0.00    +0.000 C 
ATOM    146  O   GLY A  19       5.561   0.113 -12.377  0.00  0.00    +0.000 OA
ATOM    147  N   SER A  20       4.914   1.908 -11.143  0.00  0.00    +0.000 N 
ATOM    148  CA  SER A  20       5.805   1.561 -10.051  0.00  0.00    +0.000 C 
ATOM    149  C   SER A  20       5.193   0.535  -9.145  0.00  0.00    +0.000 C 
ATOM    150  O   SER A  20       3.989   0.260  -9.221  0.00  0.00    +0.000 OA
ATOM    151  CB  SER A  20       6.168   2.795  -9.246  0.00  0.00    +0.000 C 
ATOM    152  OG  SER A  20       5.036   3.319  -8.562  0.00  0.00    +0.000 OA
ATOM    153  N   THR A  21       6.011  -0.229  -8.445  0.00  0.00    +0.000 N 
ATOM    154  CA  THR A  21       5.600  -1.191  -7.443  0.00  0.00    +0.000 C 
ATOM    155  C   THR A  21       5.073  -0.472  -6.228  0.00  0.00    +0.000 C 
ATOM    156  O   THR A  21       5.186   0.753  -6.123  0.00  0.00    +0.000 OA
ATOM    157  CB  THR A  21       6.737  -2.121  -7.023  0.00  0.00    +0.000 C 
ATOM    158  OG1 THR A  21       7.827  -1.335  -6.528  0.00  0.00    +0.000 OA
ATOM    159  CG2 THR A  21       7.200  -2.982  -8.195  0.00  0.00    +0.000 C 
ATOM    160  N   ALA A  22       4.299  -1.135  -5.393  0.00  0.00    +0.000 N 
ATOM    161  CA  ALA A  22       3.709  -0.638  -4.176  0.00  0.00    +0.000 C 
ATOM    162  C   ALA A  22       4.700   0.180  -3.377  0.00  0.00    +0.000 C 
ATOM    163  O   ALA A  22       5.920  -0.033  -3.457  0.00  0.00    +0.000 OA
ATOM    164  CB  ALA A  22       3.162  -1.791  -3.322  0.00  0.00    +0.000 C 
ATOM    165  N   TRP A  23       4.196   1.243  -2.719  0.00  0.00    +0.000 N 
ATOM    166  CA  TRP A  23       5.006   2.101  -1.853  0.00  0.00    +0.000 C 
ATOM    167  C   TRP A  23       5.633   1.284  -0.757  0.00  0.00    +0.000 C 
ATOM    168  O   TRP A  23       4.993   0.375  -0.192  0.00  0.00    +0.000 OA
ATOM    169  CB  TRP A  23       4.140   3.208  -1.245  0.00  0.00    +0.000 C 
ATOM    170  CG  TRP A  23       3.629   4.187  -2.258  0.00  0.00    +0.000 C 
ATOM    171  CD1 TRP A  23       4.141   4.408  -3.503  0.00  0.00    +0.000 C 
ATOM    172  CD2 TRP A  23       2.522   5.066  -2.093  0.00  0.00    +0.000 C 
ATOM    173  NE1 TRP A  23       3.392   5.386  -4.138  0.00  0.00    +0.000 NA
ATOM    174  CE2 TRP A  23       2.394   5.814  -3.275  0.00  0.00    +0.000 C 
ATOM    175  CE3 TRP A  23       1.625   5.301  -1.059  0.00  0.00    +0.000 C 
ATOM    176  CZ2 TRP A  23       1.395   6.757  -3.480  0.00  0.00    +0.000 C 
ATOM    177  CZ3 TRP A  23       0.631   6.263  -1.244  0.00  0.00    +0.000 C 
ATOM    178  CH2 TRP A  23       0.538   6.969  -2.428  0.00  0.00    +0.000 C 
ATOM    179  N   THR A  24       6.946   1.320  -0.601  0.00  0.00    +0.000 N 
ATOM    180  CA  THR A  24       7.624   0.697   0.541  0.00  0.00    +0.000 C 
ATOM    181  C   THR A  24       8.004   1.737   1.580  0.00  0.00    +0.000 C 
ATOM    182  O   THR A  24       8.375   2.885   1.232  0.00  0.00    +0.000 OA
ATOM    183  CB  THR A  24       8.836  -0.076   0.087  0.00  0.00    +0.000 C 
ATOM    184  OG1 THR A  24       9.723   0.801  -0.624  0.00  0.00    +0.000 OA
ATOM    185  CG2 THR A  24       8.464  -1.250  -0.808  0.00  0.00    +0.000 C 
ATOM    186  N   ASP A  25       7.385   1.782   2.738  0.00  0.00    +0.000 N 
ATOM    187  CA  ASP A  25       7.859   2.643   3.827  0.00  0.00    +0.000 C 
ATOM    188  C   ASP A  25       9.305   2.362   4.161  0.00  0.00    +0.000 C 
ATOM    189  O   ASP A  25       9.786   1.231   3.996  0.00  0.00    +0.000 OA
ATOM    190  CB  ASP A  25       6.997   2.441   5.087  0.00  0.00    +0.000 C 
ATOM    191  CG  ASP A  25       5.669   3.171   4.990  0.00  0.00    +0.000 C 
ATOM    192  OD1 ASP A  25       5.571   4.131   4.200  0.00  0.00    +0.000 OA
ATOM    193  OD2 ASP A  25       4.762   2.808   5.751  0.00  0.00    +0.000 OA
ATOM    194  H   PHE A   1      -7.669  -0.251  10.346  0.00  0.00    +0.000 HD
ATOM    195  H   PHE A   1      -8.309  -1.559  11.155  0.00  0.00    +0.000 HD
ATOM    196  H   ARG A   3      -7.526   1.986   8.575  0.00  0.00    +0.000 HD
ATOM    197  H   ARG A   3      -3.049   5.291  12.079  0.00  0.00    +0.000 HD
ATOM    198  H   ARG A   3      -2.999   6.455  13.323  0.00  0.00    +0.000 HD
ATOM    199  H   ARG A   3      -6.005   7.927  12.465  0.00  0.00    +0.000 HD
ATOM    200  H   ARG A   3      -4.678   7.945  13.535  0.00  0.00    +0.000 HD
ATOM    201  H   ARG A   3      -5.903   6.987  13.029  0.00  0.00    +0.000 HD
ATOM    202  H   LEU A   4      -6.003   0.413   7.395  0.00  0.00    +0.000 HD
ATOM    203  H   LYS A   5      -7.172  -0.137   5.242  0.00  0.00    +0.000 HD
ATOM    204  H   LYS A   5     -13.810  -0.359   1.924  0.00  0.00    +0.000 HD
ATOM    205  H   LYS A   5     -13.557  -2.002   2.030  0.00  0.00    +0.000 HD
ATOM    206  H   LYS A   5     -13.968  -1.315   0.570  0.00  0.00    +0.000 HD
ATOM    207  H   LEU A   6      -7.122   2.073   3.869  0.00  0.00    +0.000 HD
ATOM    208  H   LYS A   7      -4.620   2.419   3.298  0.00  0.00    +0.000 HD
ATOM    209  H   LYS A   7       2.426   1.664   5.436  0.00  0.00    +0.000 HD
ATOM    210  H   LYS A   7       3.482   0.920   4.385  0.00  0.00    +0.000 HD
ATOM    211  H   LYS A   7       2.173   0.082   4.982  0.00  0.00    +0.000 HD
ATOM    212  H   SER A   8      -4.022   0.297   1.690  0.00  0.00    +0.000 HD
ATOM    213  H   SER A   8      -3.434  -2.929  -1.088  0.00  0.00    +0.000 HD
ATOM    214  H   ASP A   9      -5.535   1.001  -0.456  0.00  0.00    +0.000 HD
ATOM    215  H   ASP A   9      -9.351   2.433  -0.964  0.00  0.00    +0.000 HD
ATOM    216  H   ALA A  10      -4.400   3.218  -1.313  0.00  0.00    +0.000 HD
ATOM    217  H   GLU A  11      -2.035   2.302  -2.187  0.00  0.00    +0.000 HD
ATOM    218  H   GLU A  11       2.209   1.267   0.375  0.00  0.00    +0.000 HD
ATOM    219  H   ALA A  12      -2.764   0.821  -4.260  0.00  0.00    +0.000 HD
ATOM    220  H   ILE A  13      -3.614   2.646  -6.006  0.00  0.00    +0.000 HD
ATOM    221  H   ALA A  14      -1.434   4.078  -6.495  0.00  0.00    +0.000 HD
ATOM    222  H   SER A  15       0.097   2.226  -7.764  0.00  0.00    +0.000 HD
ATOM    223  H   SER A  15       2.350  -0.742  -9.913  0.00  0.00    +0.000 HD
ATOM    224  H   ARG A  16      -1.203   2.165 -10.125  0.00  0.00    +0.000 HD
ATOM    225  H   ARG A  16      -7.463   1.304 -11.327  0.00  0.00    +0.000 HD
ATOM    226  H   ARG A  16      -8.726   0.233 -10.921  0.00  0.00    +0.000 HD
ATOM    227  H   ARG A  16      -6.685  -2.549 -10.730  0.00  0.00    +0.000 HD
ATOM    228  H   ARG A  16      -8.282  -1.970 -10.579  0.00  0.00    +0.000 HD
ATOM    229  H   ARG A  16      -7.480  -2.468 -11.477  0.00  0.00    +0.000 HD
ATOM    230  H   LEU A  17      -0.661   4.358 -11.237  0.00  0.00    +0.000 HD
ATOM    231  H   ASP A  18       1.762   4.571 -11.784  0.00  0.00    +0.000 HD
ATOM    232  H   ASP A  18       4.959   6.856  -9.605  0.00  0.00    +0.000 HD
ATOM    233  H   GLY A  19       2.393   2.965 -12.870  0.00  0.00    +0.000 HD
ATOM    234  H   SER A  20       4.365   2.724 -11.100  0.00  0.00    +0.000 HD
ATOM    235  H   SER A  20       4.358   3.575  -9.207  0.00  0.00    +0.000 HD
ATOM    236  H   THR A  21       6.976  -0.138  -8.617  0.00  0.00    +0.000 HD
ATOM    237  H   THR A  21       8.143  -0.744  -7.229  0.00  0.00    +0.000 HD
ATOM    238  H   ALA A  22       4.103  -2.071  -5.626  0.00  0.00    +0.000 HD
ATOM    239  H   TRP A  23       3.240   1.452  -2.826  0.00  0.00    +0.000 HD
ATOM    240  H   THR A  24       7.490   1.783  -1.278  0.00  0.00    +0.000 HD
ATOM    241  H   THR A  24       9.273   1.148  -1.410  0.00  0.00    +0.000 HD
ATOM    242  H   ASP A  25       6.585   1.225   2.878  0.00  0.00    +0.000 HD
ATOM    243  H   ASP A  25       4.895   2.078   6.323  0.00  0.00    +0.000 HD
TER 
