MODEL 1
REMARK VINA RESULT:      -4.6      0.000      0.000
REMARK  Name = ox1_esm1_f8_ligand
REMARK  5 active torsions:
REMARK  status: ('A' for Active; 'I' for Inactive)
REMARK    1  A    between atoms: C_1  and  O_2
REMARK    2  A    between atoms: O_2  and  C_3
REMARK    3  A    between atoms: C_6  and  C_7
REMARK    4  A    between atoms: C_7  and  C_9
REMARK    5  A    between atoms: C_15  and  O_16
REMARK                            x       y       z     vdW  Elec       q    Type
REMARK                         _______ _______ _______ _____ _____    ______ ____
ROOT
ATOM      1  C   UNL     1      -2.963   6.110   2.683  0.00  0.00    +0.000 A 
ATOM      2  C   UNL     1      -3.619   6.082   3.913  0.00  0.00    +0.000 A 
ATOM      3  C   UNL     1      -2.919   5.775   5.072  0.00  0.00    +0.000 A 
ATOM      4  C   UNL     1      -1.562   5.504   5.030  0.00  0.00    +0.000 A 
ATOM      5  C   UNL     1      -0.891   5.524   3.789  0.00  0.00    +0.000 A 
ATOM      6  C   UNL     1      -1.607   5.828   2.633  0.00  0.00    +0.000 A 
ENDROOT
BRANCH   1   8
ATOM      7  C   UNL     1      -4.851   7.261   1.666  0.00  0.00    +0.000 C 
ATOM      8  O   UNL     1      -3.692   6.426   1.574  0.00  0.00    +0.000 OA
ENDBRANCH   1   8
BRANCH   4   9
ATOM      9  C   UNL     1      -0.811   5.189   6.288  0.00  0.00    +0.000 C 
ATOM     10  O   UNL     1       0.162   5.873   6.595  0.00  0.00    +0.000 OA
BRANCH   9  11
ATOM     11  C   UNL     1      -1.215   4.043   7.156  0.00  0.00    +0.000 A 
ATOM     12  C   UNL     1      -1.473   2.831   6.628  0.00  0.00    +0.000 A 
ATOM     13  C   UNL     1      -1.817   1.717   7.372  0.00  0.00    +0.000 A 
ATOM     14  C   UNL     1      -1.944   1.847   8.734  0.00  0.00    +0.000 A 
ATOM     15  C   UNL     1      -1.701   3.083   9.317  0.00  0.00    +0.000 A 
ATOM     16  C   UNL     1      -1.343   4.171   8.521  0.00  0.00    +0.000 A 
ENDBRANCH   9  11
ENDBRANCH   4   9
BRANCH   5  17
ATOM     17  O   UNL     1       0.443   5.239   3.744  0.00  0.00    +0.000 OA
ATOM     18  H   UNL     1       0.839   4.620   4.406  0.00  0.00    +0.000 HD
ENDBRANCH   5  17
TORSDOF 4
ENDMDL
MODEL 2
REMARK VINA RESULT:      -4.6      2.022      3.486
REMARK  Name = ox1_esm1_f8_ligand
REMARK  5 active torsions:
REMARK  status: ('A' for Active; 'I' for Inactive)
REMARK    1  A    between atoms: C_1  and  O_2
REMARK    2  A    between atoms: O_2  and  C_3
REMARK    3  A    between atoms: C_6  and  C_7
REMARK    4  A    between atoms: C_7  and  C_9
REMARK    5  A    between atoms: C_15  and  O_16
REMARK                            x       y       z     vdW  Elec       q    Type
REMARK                         _______ _______ _______ _____ _____    ______ ____
ROOT
ATOM      1  C   UNL     1       1.709   5.210   3.146  0.00  0.00    +0.000 A 
ATOM      2  C   UNL     1       1.961   4.951   4.493  0.00  0.00    +0.000 A 
ATOM      3  C   UNL     1       0.922   4.967   5.413  0.00  0.00    +0.000 A 
ATOM      4  C   UNL     1      -0.377   5.228   5.012  0.00  0.00    +0.000 A 
ATOM      5  C   UNL     1      -0.640   5.498   3.653  0.00  0.00    +0.000 A 
ATOM      6  C   UNL     1       0.413   5.485   2.740  0.00  0.00    +0.000 A 
ENDROOT
BRANCH   1   8
ATOM      7  C   UNL     1       3.575   6.330   2.055  0.00  0.00    +0.000 C 
ATOM      8  O   UNL     1       2.762   5.174   2.278  0.00  0.00    +0.000 OA
ENDBRANCH   1   8
BRANCH   4   9
ATOM      9  C   UNL     1      -1.495   5.228   6.010  0.00  0.00    +0.000 C 
ATOM     10  O   UNL     1      -2.326   6.132   5.984  0.00  0.00    +0.000 OA
BRANCH   9  11
ATOM     11  C   UNL     1      -1.596   4.159   7.048  0.00  0.00    +0.000 A 
ATOM     12  C   UNL     1      -1.762   2.868   6.701  0.00  0.00    +0.000 A 
ATOM     13  C   UNL     1      -1.828   1.823   7.604  0.00  0.00    +0.000 A 
ATOM     14  C   UNL     1      -1.761   2.105   8.946  0.00  0.00    +0.000 A 
ATOM     15  C   UNL     1      -1.605   3.425   9.348  0.00  0.00    +0.000 A 
ATOM     16  C   UNL     1      -1.529   4.440   8.395  0.00  0.00    +0.000 A 
ENDBRANCH   9  11
ENDBRANCH   4   9
BRANCH   5  17
ATOM     17  O   UNL     1      -1.917   5.774   3.259  0.00  0.00    +0.000 OA
ATOM     18  H   UNL     1      -2.226   6.712   3.203  0.00  0.00    +0.000 HD
ENDBRANCH   5  17
TORSDOF 4
ENDMDL
MODEL 3
REMARK VINA RESULT:      -4.5      2.110      6.201
REMARK  Name = ox1_esm1_f8_ligand
REMARK  5 active torsions:
REMARK  status: ('A' for Active; 'I' for Inactive)
REMARK    1  A    between atoms: C_1  and  O_2
REMARK    2  A    between atoms: O_2  and  C_3
REMARK    3  A    between atoms: C_6  and  C_7
REMARK    4  A    between atoms: C_7  and  C_9
REMARK    5  A    between atoms: C_15  and  O_16
REMARK                            x       y       z     vdW  Elec       q    Type
REMARK                         _______ _______ _______ _____ _____    ______ ____
ROOT
ATOM      1  C   UNL     1      -0.804   2.761   8.800  0.00  0.00    +0.000 A 
ATOM      2  C   UNL     1      -1.165   2.247   7.555  0.00  0.00    +0.000 A 
ATOM      3  C   UNL     1      -1.842   3.042   6.641  0.00  0.00    +0.000 A 
ATOM      4  C   UNL     1      -2.159   4.355   6.941  0.00  0.00    +0.000 A 
ATOM      5  C   UNL     1      -1.803   4.882   8.200  0.00  0.00    +0.000 A 
ATOM      6  C   UNL     1      -1.129   4.071   9.112  0.00  0.00    +0.000 A 
ENDROOT
BRANCH   1   8
ATOM      7  C   UNL     1      -0.122   0.525   9.477  0.00  0.00    +0.000 C 
ATOM      8  O   UNL     1      -0.131   1.944   9.661  0.00  0.00    +0.000 OA
ENDBRANCH   1   8
BRANCH   4   9
ATOM      9  C   UNL     1      -2.877   5.211   5.941  0.00  0.00    +0.000 C 
ATOM     10  O   UNL     1      -3.979   5.673   6.225  0.00  0.00    +0.000 OA
BRANCH   9  11
ATOM     11  C   UNL     1      -2.281   5.487   4.600  0.00  0.00    +0.000 A 
ATOM     12  C   UNL     1      -3.055   5.843   3.557  0.00  0.00    +0.000 A 
ATOM     13  C   UNL     1      -2.571   6.148   2.298  0.00  0.00    +0.000 A 
ATOM     14  C   UNL     1      -1.220   6.050   2.069  0.00  0.00    +0.000 A 
ATOM     15  C   UNL     1      -0.387   5.673   3.114  0.00  0.00    +0.000 A 
ATOM     16  C   UNL     1      -0.927   5.391   4.369  0.00  0.00    +0.000 A 
ENDBRANCH   9  11
ENDBRANCH   4   9
BRANCH   5  17
ATOM     17  O   UNL     1      -2.132   6.171   8.505  0.00  0.00    +0.000 OA
ATOM     18  H   UNL     1      -1.475   6.897   8.359  0.00  0.00    +0.000 HD
ENDBRANCH   5  17
TORSDOF 4
ENDMDL
MODEL 4
REMARK VINA RESULT:      -4.4      1.467      2.190
REMARK  Name = ox1_esm1_f8_ligand
REMARK  5 active torsions:
REMARK  status: ('A' for Active; 'I' for Inactive)
REMARK    1  A    between atoms: C_1  and  O_2
REMARK    2  A    between atoms: O_2  and  C_3
REMARK    3  A    between atoms: C_6  and  C_7
REMARK    4  A    between atoms: C_7  and  C_9
REMARK    5  A    between atoms: C_15  and  O_16
REMARK                            x       y       z     vdW  Elec       q    Type
REMARK                         _______ _______ _______ _____ _____    ______ ____
ROOT
ATOM      1  C   UNL     1      -2.735   6.100   2.735  0.00  0.00    +0.000 A 
ATOM      2  C   UNL     1      -1.365   5.958   2.947  0.00  0.00    +0.000 A 
ATOM      3  C   UNL     1      -0.882   5.648   4.212  0.00  0.00    +0.000 A 
ATOM      4  C   UNL     1      -1.748   5.464   5.276  0.00  0.00    +0.000 A 
ATOM      5  C   UNL     1      -3.136   5.613   5.072  0.00  0.00    +0.000 A 
ATOM      6  C   UNL     1      -3.607   5.930   3.799  0.00  0.00    +0.000 A 
ENDROOT
BRANCH   1   8
ATOM      7  C   UNL     1      -4.432   7.016   1.249  0.00  0.00    +0.000 C 
ATOM      8  O   UNL     1      -3.161   6.396   1.473  0.00  0.00    +0.000 OA
ENDBRANCH   1   8
BRANCH   4   9
ATOM      9  C   UNL     1      -1.219   5.114   6.634  0.00  0.00    +0.000 C 
ATOM     10  O   UNL     1      -1.100   5.997   7.480  0.00  0.00    +0.000 OA
BRANCH   9  11
ATOM     11  C   UNL     1      -0.814   3.715   6.962  0.00  0.00    +0.000 A 
ATOM     12  C   UNL     1       0.471   3.410   7.229  0.00  0.00    +0.000 A 
ATOM     13  C   UNL     1       0.914   2.146   7.575  0.00  0.00    +0.000 A 
ATOM     14  C   UNL     1       0.005   1.117   7.615  0.00  0.00    +0.000 A 
ATOM     15  C   UNL     1      -1.327   1.385   7.332  0.00  0.00    +0.000 A 
ATOM     16  C   UNL     1      -1.723   2.682   7.004  0.00  0.00    +0.000 A 
ENDBRANCH   9  11
ENDBRANCH   4   9
BRANCH   5  17
ATOM     17  O   UNL     1      -3.989   5.451   6.124  0.00  0.00    +0.000 OA
ATOM     18  H   UNL     1      -3.648   5.120   6.992  0.00  0.00    +0.000 HD
ENDBRANCH   5  17
TORSDOF 4
ENDMDL
MODEL 5
REMARK VINA RESULT:      -4.3      2.230      6.029
REMARK  Name = ox1_esm1_f8_ligand
REMARK  5 active torsions:
REMARK  status: ('A' for Active; 'I' for Inactive)
REMARK    1  A    between atoms: C_1  and  O_2
REMARK    2  A    between atoms: O_2  and  C_3
REMARK    3  A    between atoms: C_6  and  C_7
REMARK    4  A    between atoms: C_7  and  C_9
REMARK    5  A    between atoms: C_15  and  O_16
REMARK                            x       y       z     vdW  Elec       q    Type
REMARK                         _______ _______ _______ _____ _____    ______ ____
ROOT
ATOM      1  C   UNL     1      -1.448   4.753   9.583  0.00  0.00    +0.000 A 
ATOM      2  C   UNL     1      -1.501   6.014   8.990  0.00  0.00    +0.000 A 
ATOM      3  C   UNL     1      -1.726   6.134   7.625  0.00  0.00    +0.000 A 
ATOM      4  C   UNL     1      -1.912   5.013   6.835  0.00  0.00    +0.000 A 
ATOM      5  C   UNL     1      -1.853   3.733   7.426  0.00  0.00    +0.000 A 
ATOM      6  C   UNL     1      -1.621   3.626   8.796  0.00  0.00    +0.000 A 
ENDROOT
BRANCH   1   8
ATOM      7  C   UNL     1      -0.654   3.523  11.528  0.00  0.00    +0.000 C 
ATOM      8  O   UNL     1      -1.234   4.687  10.929  0.00  0.00    +0.000 OA
ENDBRANCH   1   8
BRANCH   4   9
ATOM      9  C   UNL     1      -2.169   5.153   5.365  0.00  0.00    +0.000 C 
ATOM     10  O   UNL     1      -3.325   5.117   4.951  0.00  0.00    +0.000 OA
BRANCH   9  11
ATOM     11  C   UNL     1      -1.041   5.310   4.400  0.00  0.00    +0.000 A 
ATOM     12  C   UNL     1      -1.265   5.689   3.127  0.00  0.00    +0.000 A 
ATOM     13  C   UNL     1      -0.268   5.890   2.189  0.00  0.00    +0.000 A 
ATOM     14  C   UNL     1       1.035   5.654   2.551  0.00  0.00    +0.000 A 
ATOM     15  C   UNL     1       1.309   5.248   3.850  0.00  0.00    +0.000 A 
ATOM     16  C   UNL     1       0.267   5.075   4.761  0.00  0.00    +0.000 A 
ENDBRANCH   9  11
ENDBRANCH   4   9
BRANCH   5  17
ATOM     17  O   UNL     1      -2.017   2.626   6.645  0.00  0.00    +0.000 OA
ATOM     18  H   UNL     1      -2.742   1.982   6.846  0.00  0.00    +0.000 HD
ENDBRANCH   5  17
TORSDOF 4
ENDMDL
MODEL 6
REMARK VINA RESULT:      -4.3      1.935      6.062
REMARK  Name = ox1_esm1_f8_ligand
REMARK  5 active torsions:
REMARK  status: ('A' for Active; 'I' for Inactive)
REMARK    1  A    between atoms: C_1  and  O_2
REMARK    2  A    between atoms: O_2  and  C_3
REMARK    3  A    between atoms: C_6  and  C_7
REMARK    4  A    between atoms: C_7  and  C_9
REMARK    5  A    between atoms: C_15  and  O_16
REMARK                            x       y       z     vdW  Elec       q    Type
REMARK                         _______ _______ _______ _____ _____    ______ ____
ROOT
ATOM      1  C   UNL     1      -1.965   2.015   9.440  0.00  0.00    +0.000 A 
ATOM      2  C   UNL     1      -2.054   1.540   8.132  0.00  0.00    +0.000 A 
ATOM      3  C   UNL     1      -1.647   2.336   7.070  0.00  0.00    +0.000 A 
ATOM      4  C   UNL     1      -1.136   3.604   7.289  0.00  0.00    +0.000 A 
ATOM      5  C   UNL     1      -1.048   4.095   8.609  0.00  0.00    +0.000 A 
ATOM      6  C   UNL     1      -1.466   3.288   9.665  0.00  0.00    +0.000 A 
ENDROOT
BRANCH   1   8
ATOM      7  C   UNL     1      -3.705   0.682  10.497  0.00  0.00    +0.000 C 
ATOM      8  O   UNL     1      -2.369   1.192  10.450  0.00  0.00    +0.000 OA
ENDBRANCH   1   8
BRANCH   4   9
ATOM      9  C   UNL     1      -0.684   4.450   6.138  0.00  0.00    +0.000 C 
ATOM     10  O   UNL     1       0.517   4.645   5.969  0.00  0.00    +0.000 OA
BRANCH   9  11
ATOM     11  C   UNL     1      -1.673   5.077   5.212  0.00  0.00    +0.000 A 
ATOM     12  C   UNL     1      -1.313   5.467   3.973  0.00  0.00    +0.000 A 
ATOM     13  C   UNL     1      -2.182   6.021   3.050  0.00  0.00    +0.000 A 
ATOM     14  C   UNL     1      -3.489   6.229   3.417  0.00  0.00    +0.000 A 
ATOM     15  C   UNL     1      -3.898   5.855   4.689  0.00  0.00    +0.000 A 
ATOM     16  C   UNL     1      -2.985   5.286   5.576  0.00  0.00    +0.000 A 
ENDBRANCH   9  11
ENDBRANCH   4   9
BRANCH   5  17
ATOM     17  O   UNL     1      -0.562   5.352   8.825  0.00  0.00    +0.000 OA
ATOM     18  H   UNL     1      -1.157   6.137   8.721  0.00  0.00    +0.000 HD
ENDBRANCH   5  17
TORSDOF 4
ENDMDL
MODEL 7
REMARK VINA RESULT:      -4.1      2.327      6.285
REMARK  Name = ox1_esm1_f8_ligand
REMARK  5 active torsions:
REMARK  status: ('A' for Active; 'I' for Inactive)
REMARK    1  A    between atoms: C_1  and  O_2
REMARK    2  A    between atoms: O_2  and  C_3
REMARK    3  A    between atoms: C_6  and  C_7
REMARK    4  A    between atoms: C_7  and  C_9
REMARK    5  A    between atoms: C_15  and  O_16
REMARK                            x       y       z     vdW  Elec       q    Type
REMARK                         _______ _______ _______ _____ _____    ______ ____
ROOT
ATOM      1  C   UNL     1      -1.871   2.435  10.092  0.00  0.00    +0.000 A 
ATOM      2  C   UNL     1      -1.465   3.768  10.035  0.00  0.00    +0.000 A 
ATOM      3  C   UNL     1      -1.249   4.380   8.809  0.00  0.00    +0.000 A 
ATOM      4  C   UNL     1      -1.441   3.687   7.626  0.00  0.00    +0.000 A 
ATOM      5  C   UNL     1      -1.846   2.337   7.674  0.00  0.00    +0.000 A 
ATOM      6  C   UNL     1      -2.054   1.732   8.912  0.00  0.00    +0.000 A 
ENDROOT
BRANCH   1   8
ATOM      7  C   UNL     1      -3.298   1.190  11.621  0.00  0.00    +0.000 C 
ATOM      8  O   UNL     1      -2.081   1.880  11.321  0.00  0.00    +0.000 OA
ENDBRANCH   1   8
BRANCH   4   9
ATOM      9  C   UNL     1      -1.220   4.361   6.306  0.00  0.00    +0.000 C 
ATOM     10  O   UNL     1      -0.111   4.307   5.780  0.00  0.00    +0.000 OA
BRANCH   9  11
ATOM     11  C   UNL     1      -2.321   5.116   5.636  0.00  0.00    +0.000 A 
ATOM     12  C   UNL     1      -3.432   5.468   6.311  0.00  0.00    +0.000 A 
ATOM     13  C   UNL     1      -4.474   6.196   5.767  0.00  0.00    +0.000 A 
ATOM     14  C   UNL     1      -4.405   6.559   4.444  0.00  0.00    +0.000 A 
ATOM     15  C   UNL     1      -3.284   6.204   3.707  0.00  0.00    +0.000 A 
ATOM     16  C   UNL     1      -2.254   5.481   4.309  0.00  0.00    +0.000 A 
ENDBRANCH   9  11
ENDBRANCH   4   9
BRANCH   5  17
ATOM     17  O   UNL     1      -2.018   1.646   6.509  0.00  0.00    +0.000 OA
ATOM     18  H   UNL     1      -1.369   1.754   5.770  0.00  0.00    +0.000 HD
ENDBRANCH   5  17
TORSDOF 4
ENDMDL
MODEL 8
REMARK VINA RESULT:      -4.1      2.297      6.205
REMARK  Name = ox1_esm1_f8_ligand
REMARK  5 active torsions:
REMARK  status: ('A' for Active; 'I' for Inactive)
REMARK    1  A    between atoms: C_1  and  O_2
REMARK    2  A    between atoms: O_2  and  C_3
REMARK    3  A    between atoms: C_6  and  C_7
REMARK    4  A    between atoms: C_7  and  C_9
REMARK    5  A    between atoms: C_15  and  O_16
REMARK                            x       y       z     vdW  Elec       q    Type
REMARK                         _______ _______ _______ _____ _____    ______ ____
ROOT
ATOM      1  C   UNL     1       0.848   3.666   8.457  0.00  0.00    +0.000 A 
ATOM      2  C   UNL     1       0.762   5.021   8.142  0.00  0.00    +0.000 A 
ATOM      3  C   UNL     1      -0.252   5.482   7.314  0.00  0.00    +0.000 A 
ATOM      4  C   UNL     1      -1.197   4.612   6.798  0.00  0.00    +0.000 A 
ATOM      5  C   UNL     1      -1.114   3.238   7.106  0.00  0.00    +0.000 A 
ATOM      6  C   UNL     1      -0.087   2.787   7.934  0.00  0.00    +0.000 A 
ENDROOT
BRANCH   1   8
ATOM      7  C   UNL     1       3.228   3.414   8.902  0.00  0.00    +0.000 C 
ATOM      8  O   UNL     1       1.857   3.262   9.283  0.00  0.00    +0.000 OA
ENDBRANCH   1   8
BRANCH   4   9
ATOM      9  C   UNL     1      -2.298   5.121   5.917  0.00  0.00    +0.000 C 
ATOM     10  O   UNL     1      -3.431   5.240   6.377  0.00  0.00    +0.000 OA
BRANCH   9  11
ATOM     11  C   UNL     1      -2.040   5.462   4.486  0.00  0.00    +0.000 A 
ATOM     12  C   UNL     1      -3.046   5.829   3.668  0.00  0.00    +0.000 A 
ATOM     13  C   UNL     1      -2.877   6.192   2.344  0.00  0.00    +0.000 A 
ATOM     14  C   UNL     1      -1.616   6.143   1.802  0.00  0.00    +0.000 A 
ATOM     15  C   UNL     1      -0.553   5.755   2.607  0.00  0.00    +0.000 A 
ATOM     16  C   UNL     1      -0.776   5.414   3.940  0.00  0.00    +0.000 A 
ENDBRANCH   9  11
ENDBRANCH   4   9
BRANCH   5  17
ATOM     17  O   UNL     1      -2.033   2.377   6.583  0.00  0.00    +0.000 OA
ATOM     18  H   UNL     1      -2.790   2.063   7.139  0.00  0.00    +0.000 HD
ENDBRANCH   5  17
TORSDOF 4
ENDMDL
MODEL 9
REMARK VINA RESULT:      -4.1      2.248      6.244
REMARK  Name = ox1_esm1_f8_ligand
REMARK  5 active torsions:
REMARK  status: ('A' for Active; 'I' for Inactive)
REMARK    1  A    between atoms: C_1  and  O_2
REMARK    2  A    between atoms: O_2  and  C_3
REMARK    3  A    between atoms: C_6  and  C_7
REMARK    4  A    between atoms: C_7  and  C_9
REMARK    5  A    between atoms: C_15  and  O_16
REMARK                            x       y       z     vdW  Elec       q    Type
REMARK                         _______ _______ _______ _____ _____    ______ ____
ROOT
ATOM      1  C   UNL     1      -0.061   1.642   7.903  0.00  0.00    +0.000 A 
ATOM      2  C   UNL     1       1.076   2.387   7.593  0.00  0.00    +0.000 A 
ATOM      3  C   UNL     1       0.956   3.613   6.954  0.00  0.00    +0.000 A 
ATOM      4  C   UNL     1      -0.289   4.121   6.624  0.00  0.00    +0.000 A 
ATOM      5  C   UNL     1      -1.445   3.372   6.927  0.00  0.00    +0.000 A 
ATOM      6  C   UNL     1      -1.309   2.139   7.564  0.00  0.00    +0.000 A 
ENDROOT
BRANCH   1   8
ATOM      7  C   UNL     1       1.081  -0.500   8.086  0.00  0.00    +0.000 C 
ATOM      8  O   UNL     1       0.108   0.447   8.540  0.00  0.00    +0.000 OA
ENDBRANCH   1   8
BRANCH   4   9
ATOM      9  C   UNL     1      -0.411   5.453   5.948  0.00  0.00    +0.000 C 
ATOM     10  O   UNL     1      -0.328   6.479   6.619  0.00  0.00    +0.000 OA
BRANCH   9  11
ATOM     11  C   UNL     1      -0.655   5.548   4.478  0.00  0.00    +0.000 A 
ATOM     12  C   UNL     1      -1.889   5.792   3.994  0.00  0.00    +0.000 A 
ATOM     13  C   UNL     1      -2.183   5.928   2.650  0.00  0.00    +0.000 A 
ATOM     14  C   UNL     1      -1.171   5.769   1.734  0.00  0.00    +0.000 A 
ATOM     15  C   UNL     1       0.113   5.503   2.189  0.00  0.00    +0.000 A 
ATOM     16  C   UNL     1       0.357   5.390   3.558  0.00  0.00    +0.000 A 
ENDBRANCH   9  11
ENDBRANCH   4   9
BRANCH   5  17
ATOM     17  O   UNL     1      -2.671   3.863   6.586  0.00  0.00    +0.000 OA
ATOM     18  H   UNL     1      -3.455   3.684   7.164  0.00  0.00    +0.000 HD
ENDBRANCH   5  17
TORSDOF 4
ENDMDL
