MODEL 1
REMARK VINA RESULT:      -3.4      0.000      0.000
REMARK  Name = bg33_2_ligand
REMARK  12 active torsions:
REMARK  status: ('A' for Active; 'I' for Inactive)
REMARK    1  A    between atoms: C_1  and  C_2
REMARK    2  A    between atoms: C_2  and  C_3
REMARK    3  A    between atoms: C_3  and  C_4
REMARK    4  A    between atoms: C_4  and  C_5
REMARK    5  A    between atoms: C_5  and  C_6
REMARK    6  A    between atoms: C_5  and  O_8
REMARK    7  A    between atoms: C_6  and  C_7
REMARK    8  A    between atoms: O_8  and  C_9
REMARK    9  A    between atoms: C_9  and  C_11
REMARK   10  A    between atoms: C_12  and  C_13
REMARK   11  A    between atoms: C_16  and  O_17
REMARK   12  A    between atoms: O_17  and  C_18
REMARK                            x       y       z     vdW  Elec       q    Type
REMARK                         _______ _______ _______ _____ _____    ______ ____
ROOT
ATOM      1  C   UNL     1      -2.782   1.220  -7.933  0.00  0.00    +0.000 C 
ATOM      2  O   UNL     1      -1.652   1.601  -8.138  0.00  0.00    +0.000 OA
ENDROOT
BRANCH   1   3
ATOM      3  C   UNL     1      -3.932   2.122  -8.271  0.00  0.00    +0.000 C 
ATOM      4  C   UNL     1      -5.202   1.686  -8.551  0.00  0.00    +0.000 C 
BRANCH   4   5
ATOM      5  C   UNL     1      -6.323   2.679  -8.736  0.00  0.00    +0.000 A 
ATOM      6  C   UNL     1      -7.093   2.658  -9.882  0.00  0.00    +0.000 A 
ATOM      7  C   UNL     1      -8.099   3.612 -10.015  0.00  0.00    +0.000 A 
ATOM      8  C   UNL     1      -8.359   4.578  -9.051  0.00  0.00    +0.000 A 
ATOM      9  C   UNL     1      -7.559   4.584  -7.935  0.00  0.00    +0.000 A 
ATOM     10  C   UNL     1      -6.541   3.636  -7.764  0.00  0.00    +0.000 A 
BRANCH   8  11
ATOM     11  O   UNL     1      -9.351   5.535  -9.234  0.00  0.00    +0.000 OA
ATOM     12  C   UNL     1      -9.057   6.546 -10.207  0.00  0.00    +0.000 C 
ENDBRANCH   8  11
ENDBRANCH   4   5
ENDBRANCH   1   3
BRANCH   1  13
ATOM     13  O   UNL     1      -2.979  -0.050  -7.317  0.00  0.00    +0.000 OA
BRANCH  13  14
ATOM     14  C   UNL     1      -2.371  -0.282  -6.006  0.00  0.00    +0.000 C 
BRANCH  14  15
ATOM     15  C   UNL     1      -1.377  -1.426  -5.984  0.00  0.00    +0.000 C 
ATOM     16  C   UNL     1       0.095  -0.873  -6.125  0.00  0.00    +0.000 C 
ENDBRANCH  14  15
BRANCH  14  17
ATOM     17  C   UNL     1      -3.424  -0.552  -4.970  0.00  0.00    +0.000 C 
BRANCH  17  18
ATOM     18  C   UNL     1      -4.804  -0.757  -5.618  0.00  0.00    +0.000 C 
BRANCH  18  20
ATOM     19  C   UNL     1      -7.068   0.289  -5.701  0.00  0.00    +0.000 C 
ATOM     20  C   UNL     1      -5.926  -0.189  -4.788  0.00  0.00    +0.000 C 
ENDBRANCH  18  20
ENDBRANCH  17  18
ENDBRANCH  14  17
ENDBRANCH  13  14
ENDBRANCH   1  13
TORSDOF 9
ENDMDL
MODEL 2
REMARK VINA RESULT:      -3.2      1.293      2.325
REMARK  Name = bg33_2_ligand
REMARK  12 active torsions:
REMARK  status: ('A' for Active; 'I' for Inactive)
REMARK    1  A    between atoms: C_1  and  C_2
REMARK    2  A    between atoms: C_2  and  C_3
REMARK    3  A    between atoms: C_3  and  C_4
REMARK    4  A    between atoms: C_4  and  C_5
REMARK    5  A    between atoms: C_5  and  C_6
REMARK    6  A    between atoms: C_5  and  O_8
REMARK    7  A    between atoms: C_6  and  C_7
REMARK    8  A    between atoms: O_8  and  C_9
REMARK    9  A    between atoms: C_9  and  C_11
REMARK   10  A    between atoms: C_12  and  C_13
REMARK   11  A    between atoms: C_16  and  O_17
REMARK   12  A    between atoms: O_17  and  C_18
REMARK                            x       y       z     vdW  Elec       q    Type
REMARK                         _______ _______ _______ _____ _____    ______ ____
ROOT
ATOM      1  C   UNL     1      -2.433   1.316  -7.876  0.00  0.00    +0.000 C 
ATOM      2  O   UNL     1      -1.482   1.167  -8.610  0.00  0.00    +0.000 OA
ENDROOT
BRANCH   1   3
ATOM      3  C   UNL     1      -3.637   2.056  -8.379  0.00  0.00    +0.000 C 
ATOM      4  C   UNL     1      -4.932   1.635  -8.207  0.00  0.00    +0.000 C 
BRANCH   4   5
ATOM      5  C   UNL     1      -6.080   2.522  -8.622  0.00  0.00    +0.000 A 
ATOM      6  C   UNL     1      -6.716   2.322  -9.832  0.00  0.00    +0.000 A 
ATOM      7  C   UNL     1      -7.754   3.183 -10.178  0.00  0.00    +0.000 A 
ATOM      8  C   UNL     1      -8.174   4.228  -9.366  0.00  0.00    +0.000 A 
ATOM      9  C   UNL     1      -7.505   4.412  -8.181  0.00  0.00    +0.000 A 
ATOM     10  C   UNL     1      -6.460   3.561  -7.796  0.00  0.00    +0.000 A 
BRANCH   8  11
ATOM     11  O   UNL     1      -9.194   5.088  -9.760  0.00  0.00    +0.000 OA
ATOM     12  C   UNL     1      -8.761   6.323 -10.346  0.00  0.00    +0.000 C 
ENDBRANCH   8  11
ENDBRANCH   4   5
ENDBRANCH   1   3
BRANCH   1  13
ATOM     13  O   UNL     1      -2.349   0.839  -6.536  0.00  0.00    +0.000 OA
BRANCH  13  14
ATOM     14  C   UNL     1      -2.987  -0.439  -6.216  0.00  0.00    +0.000 C 
BRANCH  14  15
ATOM     15  C   UNL     1      -3.553  -0.509  -4.812  0.00  0.00    +0.000 C 
ATOM     16  C   UNL     1      -4.754  -1.532  -4.757  0.00  0.00    +0.000 C 
ENDBRANCH  14  15
BRANCH  14  17
ATOM     17  C   UNL     1      -2.022  -1.576  -6.394  0.00  0.00    +0.000 C 
BRANCH  17  18
ATOM     18  C   UNL     1      -2.392  -2.434  -7.616  0.00  0.00    +0.000 C 
BRANCH  18  20
ATOM     19  C   UNL     1      -3.515  -1.701  -9.721  0.00  0.00    +0.000 C 
ATOM     20  C   UNL     1      -3.708  -2.032  -8.231  0.00  0.00    +0.000 C 
ENDBRANCH  18  20
ENDBRANCH  17  18
ENDBRANCH  14  17
ENDBRANCH  13  14
ENDBRANCH   1  13
TORSDOF 9
ENDMDL
MODEL 3
REMARK VINA RESULT:      -3.2      0.948      3.158
REMARK  Name = bg33_2_ligand
REMARK  12 active torsions:
REMARK  status: ('A' for Active; 'I' for Inactive)
REMARK    1  A    between atoms: C_1  and  C_2
REMARK    2  A    between atoms: C_2  and  C_3
REMARK    3  A    between atoms: C_3  and  C_4
REMARK    4  A    between atoms: C_4  and  C_5
REMARK    5  A    between atoms: C_5  and  C_6
REMARK    6  A    between atoms: C_5  and  O_8
REMARK    7  A    between atoms: C_6  and  C_7
REMARK    8  A    between atoms: O_8  and  C_9
REMARK    9  A    between atoms: C_9  and  C_11
REMARK   10  A    between atoms: C_12  and  C_13
REMARK   11  A    between atoms: C_16  and  O_17
REMARK   12  A    between atoms: O_17  and  C_18
REMARK                            x       y       z     vdW  Elec       q    Type
REMARK                         _______ _______ _______ _____ _____    ______ ____
ROOT
ATOM      1  C   UNL     1      -2.458   1.367  -7.962  0.00  0.00    +0.000 C 
ATOM      2  O   UNL     1      -1.659   1.227  -8.860  0.00  0.00    +0.000 OA
ENDROOT
BRANCH   1   3
ATOM      3  C   UNL     1      -3.700   2.174  -8.206  0.00  0.00    +0.000 C 
ATOM      4  C   UNL     1      -4.850   1.676  -8.763  0.00  0.00    +0.000 C 
BRANCH   4   5
ATOM      5  C   UNL     1      -6.091   2.530  -8.833  0.00  0.00    +0.000 A 
ATOM      6  C   UNL     1      -6.952   2.426  -9.908  0.00  0.00    +0.000 A 
ATOM      7  C   UNL     1      -8.071   3.254  -9.936  0.00  0.00    +0.000 A 
ATOM      8  C   UNL     1      -8.357   4.175  -8.937  0.00  0.00    +0.000 A 
ATOM      9  C   UNL     1      -7.468   4.268  -7.894  0.00  0.00    +0.000 A 
ATOM     10  C   UNL     1      -6.335   3.447  -7.829  0.00  0.00    +0.000 A 
BRANCH   8  11
ATOM     11  O   UNL     1      -9.468   5.008  -9.016  0.00  0.00    +0.000 OA
ATOM     12  C   UNL     1     -10.055   5.368  -7.758  0.00  0.00    +0.000 C 
ENDBRANCH   8  11
ENDBRANCH   4   5
ENDBRANCH   1   3
BRANCH   1  13
ATOM     13  O   UNL     1      -2.159   0.815  -6.683  0.00  0.00    +0.000 OA
BRANCH  13  14
ATOM     14  C   UNL     1      -2.725  -0.492  -6.346  0.00  0.00    +0.000 C 
BRANCH  14  15
ATOM     15  C   UNL     1      -3.689  -0.461  -5.178  0.00  0.00    +0.000 C 
ATOM     16  C   UNL     1      -5.179  -0.431  -5.698  0.00  0.00    +0.000 C 
ENDBRANCH  14  15
BRANCH  14  17
ATOM     17  C   UNL     1      -1.638  -1.481  -6.036  0.00  0.00    +0.000 C 
BRANCH  17  18
ATOM     18  C   UNL     1      -0.253  -0.812  -6.061  0.00  0.00    +0.000 C 
BRANCH  18  20
ATOM     19  C   UNL     1       1.359  -0.172  -7.855  0.00  0.00    +0.000 C 
ATOM     20  C   UNL     1       0.625  -1.336  -7.167  0.00  0.00    +0.000 C 
ENDBRANCH  18  20
ENDBRANCH  17  18
ENDBRANCH  14  17
ENDBRANCH  13  14
ENDBRANCH   1  13
TORSDOF 9
ENDMDL
MODEL 4
REMARK VINA RESULT:      -3.2      2.177      7.744
REMARK  Name = bg33_2_ligand
REMARK  12 active torsions:
REMARK  status: ('A' for Active; 'I' for Inactive)
REMARK    1  A    between atoms: C_1  and  C_2
REMARK    2  A    between atoms: C_2  and  C_3
REMARK    3  A    between atoms: C_3  and  C_4
REMARK    4  A    between atoms: C_4  and  C_5
REMARK    5  A    between atoms: C_5  and  C_6
REMARK    6  A    between atoms: C_5  and  O_8
REMARK    7  A    between atoms: C_6  and  C_7
REMARK    8  A    between atoms: O_8  and  C_9
REMARK    9  A    between atoms: C_9  and  C_11
REMARK   10  A    between atoms: C_12  and  C_13
REMARK   11  A    between atoms: C_16  and  O_17
REMARK   12  A    between atoms: O_17  and  C_18
REMARK                            x       y       z     vdW  Elec       q    Type
REMARK                         _______ _______ _______ _____ _____    ______ ____
ROOT
ATOM      1  C   UNL     1      -6.137   2.071  -9.952  0.00  0.00    +0.000 C 
ATOM      2  O   UNL     1      -6.339   2.194 -11.139  0.00  0.00    +0.000 OA
ENDROOT
BRANCH   1   3
ATOM      3  C   UNL     1      -4.833   1.493  -9.487  0.00  0.00    +0.000 C 
ATOM      4  C   UNL     1      -4.092   1.993  -8.446  0.00  0.00    +0.000 C 
BRANCH   4   5
ATOM      5  C   UNL     1      -2.868   1.255  -7.962  0.00  0.00    +0.000 A 
ATOM      6  C   UNL     1      -1.702   1.277  -8.700  0.00  0.00    +0.000 A 
ATOM      7  C   UNL     1      -0.608   0.560  -8.222  0.00  0.00    +0.000 A 
ATOM      8  C   UNL     1      -0.640  -0.173  -7.042  0.00  0.00    +0.000 A 
ATOM      9  C   UNL     1      -1.824  -0.191  -6.345  0.00  0.00    +0.000 A 
ATOM     10  C   UNL     1      -2.943   0.524  -6.793  0.00  0.00    +0.000 A 
BRANCH   8  11
ATOM     11  O   UNL     1       0.462  -0.904  -6.613  0.00  0.00    +0.000 OA
ATOM     12  C   UNL     1       1.713  -0.534  -7.208  0.00  0.00    +0.000 C 
ENDBRANCH   8  11
ENDBRANCH   4   5
ENDBRANCH   1   3
BRANCH   1  13
ATOM     13  O   UNL     1      -7.174   2.419  -9.039  0.00  0.00    +0.000 OA
BRANCH  13  14
ATOM     14  C   UNL     1      -7.359   3.834  -8.712  0.00  0.00    +0.000 C 
BRANCH  14  15
ATOM     15  C   UNL     1      -7.297   4.135  -7.228  0.00  0.00    +0.000 C 
ATOM     16  C   UNL     1      -8.665   4.749  -6.736  0.00  0.00    +0.000 C 
ENDBRANCH  14  15
BRANCH  14  17
ATOM     17  C   UNL     1      -8.673   4.336  -9.240  0.00  0.00    +0.000 C 
BRANCH  17  18
ATOM     18  C   UNL     1      -8.525   4.884 -10.670  0.00  0.00    +0.000 C 
BRANCH  18  20
ATOM     19  C   UNL     1      -9.591   6.914  -9.684  0.00  0.00    +0.000 C 
ATOM     20  C   UNL     1      -8.586   6.388 -10.724  0.00  0.00    +0.000 C 
ENDBRANCH  18  20
ENDBRANCH  17  18
ENDBRANCH  14  17
ENDBRANCH  13  14
ENDBRANCH   1  13
TORSDOF 9
ENDMDL
MODEL 5
REMARK VINA RESULT:      -3.2      3.064      7.581
REMARK  Name = bg33_2_ligand
REMARK  12 active torsions:
REMARK  status: ('A' for Active; 'I' for Inactive)
REMARK    1  A    between atoms: C_1  and  C_2
REMARK    2  A    between atoms: C_2  and  C_3
REMARK    3  A    between atoms: C_3  and  C_4
REMARK    4  A    between atoms: C_4  and  C_5
REMARK    5  A    between atoms: C_5  and  C_6
REMARK    6  A    between atoms: C_5  and  O_8
REMARK    7  A    between atoms: C_6  and  C_7
REMARK    8  A    between atoms: O_8  and  C_9
REMARK    9  A    between atoms: C_9  and  C_11
REMARK   10  A    between atoms: C_12  and  C_13
REMARK   11  A    between atoms: C_16  and  O_17
REMARK   12  A    between atoms: O_17  and  C_18
REMARK                            x       y       z     vdW  Elec       q    Type
REMARK                         _______ _______ _______ _____ _____    ______ ____
ROOT
ATOM      1  C   UNL     1      -8.058   1.145  -6.574  0.00  0.00    +0.000 C 
ATOM      2  O   UNL     1      -9.267   1.197  -6.607  0.00  0.00    +0.000 OA
ENDROOT
BRANCH   1   3
ATOM      3  C   UNL     1      -7.371   0.910  -5.261  0.00  0.00    +0.000 C 
ATOM      4  C   UNL     1      -6.420  -0.055  -5.047  0.00  0.00    +0.000 C 
BRANCH   4   5
ATOM      5  C   UNL     1      -5.684  -0.118  -3.732  0.00  0.00    +0.000 A 
ATOM      6  C   UNL     1      -5.935   0.815  -2.745  0.00  0.00    +0.000 A 
ATOM      7  C   UNL     1      -5.212   0.727  -1.559  0.00  0.00    +0.000 A 
ATOM      8  C   UNL     1      -4.253  -0.250  -1.327  0.00  0.00    +0.000 A 
ATOM      9  C   UNL     1      -4.011  -1.147  -2.338  0.00  0.00    +0.000 A 
ATOM     10  C   UNL     1      -4.725  -1.094  -3.543  0.00  0.00    +0.000 A 
BRANCH   8  11
ATOM     11  O   UNL     1      -3.526  -0.285  -0.141  0.00  0.00    +0.000 OA
ATOM     12  C   UNL     1      -4.307  -0.210   1.059  0.00  0.00    +0.000 C 
ENDBRANCH   8  11
ENDBRANCH   4   5
ENDBRANCH   1   3
BRANCH   1  13
ATOM     13  O   UNL     1      -7.327   1.376  -7.775  0.00  0.00    +0.000 OA
BRANCH  13  14
ATOM     14  C   UNL     1      -6.313   2.431  -7.774  0.00  0.00    +0.000 C 
BRANCH  14  15
ATOM     15  C   UNL     1      -6.880   3.827  -7.937  0.00  0.00    +0.000 C 
ATOM     16  C   UNL     1      -7.912   3.862  -9.131  0.00  0.00    +0.000 C 
ENDBRANCH  14  15
BRANCH  14  17
ATOM     17  C   UNL     1      -5.303   2.202  -8.862  0.00  0.00    +0.000 C 
BRANCH  17  18
ATOM     18  C   UNL     1      -3.925   1.848  -8.277  0.00  0.00    +0.000 C 
BRANCH  18  20
ATOM     19  C   UNL     1      -2.786   0.393  -6.600  0.00  0.00    +0.000 C 
ATOM     20  C   UNL     1      -3.889   0.469  -7.670  0.00  0.00    +0.000 C 
ENDBRANCH  18  20
ENDBRANCH  17  18
ENDBRANCH  14  17
ENDBRANCH  13  14
ENDBRANCH   1  13
TORSDOF 9
ENDMDL
MODEL 6
REMARK VINA RESULT:      -3.1     10.330     12.955
REMARK  Name = bg33_2_ligand
REMARK  12 active torsions:
REMARK  status: ('A' for Active; 'I' for Inactive)
REMARK    1  A    between atoms: C_1  and  C_2
REMARK    2  A    between atoms: C_2  and  C_3
REMARK    3  A    between atoms: C_3  and  C_4
REMARK    4  A    between atoms: C_4  and  C_5
REMARK    5  A    between atoms: C_5  and  C_6
REMARK    6  A    between atoms: C_5  and  O_8
REMARK    7  A    between atoms: C_6  and  C_7
REMARK    8  A    between atoms: O_8  and  C_9
REMARK    9  A    between atoms: C_9  and  C_11
REMARK   10  A    between atoms: C_12  and  C_13
REMARK   11  A    between atoms: C_16  and  O_17
REMARK   12  A    between atoms: O_17  and  C_18
REMARK                            x       y       z     vdW  Elec       q    Type
REMARK                         _______ _______ _______ _____ _____    ______ ____
ROOT
ATOM      1  C   UNL     1       5.341   3.853   1.291  0.00  0.00    +0.000 C 
ATOM      2  O   UNL     1       5.763   2.729   1.442  0.00  0.00    +0.000 OA
ENDROOT
BRANCH   1   3
ATOM      3  C   UNL     1       4.870   4.282  -0.067  0.00  0.00    +0.000 C 
ATOM      4  C   UNL     1       5.702   4.597  -1.111  0.00  0.00    +0.000 C 
BRANCH   4   5
ATOM      5  C   UNL     1       5.131   4.877  -2.479  0.00  0.00    +0.000 A 
ATOM      6  C   UNL     1       4.815   3.837  -3.331  0.00  0.00    +0.000 A 
ATOM      7  C   UNL     1       4.313   4.150  -4.592  0.00  0.00    +0.000 A 
ATOM      8  C   UNL     1       4.119   5.454  -5.028  0.00  0.00    +0.000 A 
ATOM      9  C   UNL     1       4.465   6.464  -4.163  0.00  0.00    +0.000 A 
ATOM     10  C   UNL     1       4.967   6.187  -2.885  0.00  0.00    +0.000 A 
BRANCH   8  11
ATOM     11  O   UNL     1       3.646   5.728  -6.307  0.00  0.00    +0.000 OA
ATOM     12  C   UNL     1       3.171   7.066  -6.511  0.00  0.00    +0.000 C 
ENDBRANCH   8  11
ENDBRANCH   4   5
ENDBRANCH   1   3
BRANCH   1  13
ATOM     13  O   UNL     1       5.367   4.752   2.397  0.00  0.00    +0.000 OA
BRANCH  13  14
ATOM     14  C   UNL     1       4.601   5.995   2.295  0.00  0.00    +0.000 C 
BRANCH  14  15
ATOM     15  C   UNL     1       5.452   7.222   2.041  0.00  0.00    +0.000 C 
ATOM     16  C   UNL     1       5.021   7.918   0.692  0.00  0.00    +0.000 C 
ENDBRANCH  14  15
BRANCH  14  17
ATOM     17  C   UNL     1       3.794   6.228   3.540  0.00  0.00    +0.000 C 
BRANCH  17  18
ATOM     18  C   UNL     1       2.430   6.858   3.211  0.00  0.00    +0.000 C 
BRANCH  18  20
ATOM     19  C   UNL     1       0.417   5.514   2.604  0.00  0.00    +0.000 C 
ATOM     20  C   UNL     1       1.720   6.148   2.087  0.00  0.00    +0.000 C 
ENDBRANCH  18  20
ENDBRANCH  17  18
ENDBRANCH  14  17
ENDBRANCH  13  14
ENDBRANCH   1  13
TORSDOF 9
ENDMDL
MODEL 7
REMARK VINA RESULT:      -3.1      7.946     10.536
REMARK  Name = bg33_2_ligand
REMARK  12 active torsions:
REMARK  status: ('A' for Active; 'I' for Inactive)
REMARK    1  A    between atoms: C_1  and  C_2
REMARK    2  A    between atoms: C_2  and  C_3
REMARK    3  A    between atoms: C_3  and  C_4
REMARK    4  A    between atoms: C_4  and  C_5
REMARK    5  A    between atoms: C_5  and  C_6
REMARK    6  A    between atoms: C_5  and  O_8
REMARK    7  A    between atoms: C_6  and  C_7
REMARK    8  A    between atoms: O_8  and  C_9
REMARK    9  A    between atoms: C_9  and  C_11
REMARK   10  A    between atoms: C_12  and  C_13
REMARK   11  A    between atoms: C_16  and  O_17
REMARK   12  A    between atoms: O_17  and  C_18
REMARK                            x       y       z     vdW  Elec       q    Type
REMARK                         _______ _______ _______ _____ _____    ______ ____
ROOT
ATOM      1  C   UNL     1      -0.590  -5.134   0.326  0.00  0.00    +0.000 C 
ATOM      2  O   UNL     1       0.389  -5.279  -0.371  0.00  0.00    +0.000 OA
ENDROOT
BRANCH   1   3
ATOM      3  C   UNL     1      -1.381  -3.864   0.223  0.00  0.00    +0.000 C 
ATOM      4  C   UNL     1      -2.581  -3.750  -0.431  0.00  0.00    +0.000 C 
BRANCH   4   5
ATOM      5  C   UNL     1      -3.368  -2.465  -0.354  0.00  0.00    +0.000 A 
ATOM      6  C   UNL     1      -4.178  -2.078  -1.404  0.00  0.00    +0.000 A 
ATOM      7  C   UNL     1      -4.865  -0.872  -1.293  0.00  0.00    +0.000 A 
ATOM      8  C   UNL     1      -4.771  -0.045  -0.181  0.00  0.00    +0.000 A 
ATOM      9  C   UNL     1      -3.939  -0.450   0.834  0.00  0.00    +0.000 A 
ATOM     10  C   UNL     1      -3.237  -1.661   0.761  0.00  0.00    +0.000 A 
BRANCH   8  11
ATOM     11  O   UNL     1      -5.447   1.169  -0.120  0.00  0.00    +0.000 OA
ATOM     12  C   UNL     1      -5.488   1.910  -1.347  0.00  0.00    +0.000 C 
ENDBRANCH   8  11
ENDBRANCH   4   5
ENDBRANCH   1   3
BRANCH   1  13
ATOM     13  O   UNL     1      -0.919  -6.151   1.269  0.00  0.00    +0.000 OA
BRANCH  13  14
ATOM     14  C   UNL     1      -0.104  -6.260   2.479  0.00  0.00    +0.000 C 
BRANCH  14  15
ATOM     15  C   UNL     1       0.427  -7.655   2.739  0.00  0.00    +0.000 C 
ATOM     16  C   UNL     1       1.851  -7.829   2.079  0.00  0.00    +0.000 C 
ENDBRANCH  14  15
BRANCH  14  17
ATOM     17  C   UNL     1      -0.881  -5.818   3.687  0.00  0.00    +0.000 C 
BRANCH  17  18
ATOM     18  C   UNL     1      -2.392  -6.021   3.483  0.00  0.00    +0.000 C 
BRANCH  18  20
ATOM     19  C   UNL     1      -4.343  -4.687   2.683  0.00  0.00    +0.000 C 
ATOM     20  C   UNL     1      -3.181  -4.754   3.689  0.00  0.00    +0.000 C 
ENDBRANCH  18  20
ENDBRANCH  17  18
ENDBRANCH  14  17
ENDBRANCH  13  14
ENDBRANCH   1  13
TORSDOF 9
ENDMDL
MODEL 8
REMARK VINA RESULT:      -3.1      1.710      7.467
REMARK  Name = bg33_2_ligand
REMARK  12 active torsions:
REMARK  status: ('A' for Active; 'I' for Inactive)
REMARK    1  A    between atoms: C_1  and  C_2
REMARK    2  A    between atoms: C_2  and  C_3
REMARK    3  A    between atoms: C_3  and  C_4
REMARK    4  A    between atoms: C_4  and  C_5
REMARK    5  A    between atoms: C_5  and  C_6
REMARK    6  A    between atoms: C_5  and  O_8
REMARK    7  A    between atoms: C_6  and  C_7
REMARK    8  A    between atoms: O_8  and  C_9
REMARK    9  A    between atoms: C_9  and  C_11
REMARK   10  A    between atoms: C_12  and  C_13
REMARK   11  A    between atoms: C_16  and  O_17
REMARK   12  A    between atoms: O_17  and  C_18
REMARK                            x       y       z     vdW  Elec       q    Type
REMARK                         _______ _______ _______ _____ _____    ______ ____
ROOT
ATOM      1  C   UNL     1      -8.174   4.560  -7.612  0.00  0.00    +0.000 C 
ATOM      2  O   UNL     1      -8.498   5.021  -6.541  0.00  0.00    +0.000 OA
ENDROOT
BRANCH   1   3
ATOM      3  C   UNL     1      -6.935   3.720  -7.704  0.00  0.00    +0.000 C 
ATOM      4  C   UNL     1      -6.923   2.349  -7.658  0.00  0.00    +0.000 C 
BRANCH   4   5
ATOM      5  C   UNL     1      -5.642   1.591  -7.903  0.00  0.00    +0.000 A 
ATOM      6  C   UNL     1      -5.503   0.290  -7.462  0.00  0.00    +0.000 A 
ATOM      7  C   UNL     1      -4.292  -0.357  -7.693  0.00  0.00    +0.000 A 
ATOM      8  C   UNL     1      -3.223   0.246  -8.342  0.00  0.00    +0.000 A 
ATOM      9  C   UNL     1      -3.387   1.549  -8.747  0.00  0.00    +0.000 A 
ATOM     10  C   UNL     1      -4.594   2.229  -8.538  0.00  0.00    +0.000 A 
BRANCH   8  11
ATOM     11  O   UNL     1      -2.016  -0.420  -8.525  0.00  0.00    +0.000 OA
ATOM     12  C   UNL     1      -0.932   0.037  -7.705  0.00  0.00    +0.000 C 
ENDBRANCH   8  11
ENDBRANCH   4   5
ENDBRANCH   1   3
BRANCH   1  13
ATOM     13  O   UNL     1      -8.948   4.886  -8.764  0.00  0.00    +0.000 OA
BRANCH  13  14
ATOM     14  C   UNL     1      -8.258   4.999 -10.050  0.00  0.00    +0.000 C 
BRANCH  14  15
ATOM     15  C   UNL     1      -8.490   6.319 -10.757  0.00  0.00    +0.000 C 
ATOM     16  C   UNL     1      -9.275   6.085 -12.107  0.00  0.00    +0.000 C 
ENDBRANCH  14  15
BRANCH  14  17
ATOM     17  C   UNL     1      -8.668   3.889 -10.975  0.00  0.00    +0.000 C 
BRANCH  17  18
ATOM     18  C   UNL     1      -7.482   2.962 -11.292  0.00  0.00    +0.000 C 
BRANCH  18  20
ATOM     19  C   UNL     1      -6.570   0.639 -11.335  0.00  0.00    +0.000 C 
ATOM     20  C   UNL     1      -7.829   1.503 -11.142  0.00  0.00    +0.000 C 
ENDBRANCH  18  20
ENDBRANCH  17  18
ENDBRANCH  14  17
ENDBRANCH  13  14
ENDBRANCH   1  13
TORSDOF 9
ENDMDL
MODEL 9
REMARK VINA RESULT:      -3.0      6.702     10.153
REMARK  Name = bg33_2_ligand
REMARK  12 active torsions:
REMARK  status: ('A' for Active; 'I' for Inactive)
REMARK    1  A    between atoms: C_1  and  C_2
REMARK    2  A    between atoms: C_2  and  C_3
REMARK    3  A    between atoms: C_3  and  C_4
REMARK    4  A    between atoms: C_4  and  C_5
REMARK    5  A    between atoms: C_5  and  C_6
REMARK    6  A    between atoms: C_5  and  O_8
REMARK    7  A    between atoms: C_6  and  C_7
REMARK    8  A    between atoms: O_8  and  C_9
REMARK    9  A    between atoms: C_9  and  C_11
REMARK   10  A    between atoms: C_12  and  C_13
REMARK   11  A    between atoms: C_16  and  O_17
REMARK   12  A    between atoms: O_17  and  C_18
REMARK                            x       y       z     vdW  Elec       q    Type
REMARK                         _______ _______ _______ _____ _____    ______ ____
ROOT
ATOM      1  C   UNL     1      -0.252  -5.470   1.292  0.00  0.00    +0.000 C 
ATOM      2  O   UNL     1      -0.412  -5.591   2.486  0.00  0.00    +0.000 OA
ENDROOT
BRANCH   1   3
ATOM      3  C   UNL     1      -1.004  -4.400   0.558  0.00  0.00    +0.000 C 
ATOM      4  C   UNL     1      -2.370  -4.275   0.556  0.00  0.00    +0.000 C 
BRANCH   4   5
ATOM      5  C   UNL     1      -3.023  -3.081  -0.094  0.00  0.00    +0.000 A 
ATOM      6  C   UNL     1      -3.386  -3.121  -1.426  0.00  0.00    +0.000 A 
ATOM      7  C   UNL     1      -3.963  -1.984  -1.985  0.00  0.00    +0.000 A 
ATOM      8  C   UNL     1      -4.187  -0.817  -1.266  0.00  0.00    +0.000 A 
ATOM      9  C   UNL     1      -3.793  -0.804   0.050  0.00  0.00    +0.000 A 
ATOM     10  C   UNL     1      -3.215  -1.932   0.648  0.00  0.00    +0.000 A 
BRANCH   8  11
ATOM     11  O   UNL     1      -4.736   0.311  -1.866  0.00  0.00    +0.000 OA
ATOM     12  C   UNL     1      -5.462   0.068  -3.079  0.00  0.00    +0.000 C 
ENDBRANCH   8  11
ENDBRANCH   4   5
ENDBRANCH   1   3
BRANCH   1  13
ATOM     13  O   UNL     1       0.597  -6.393   0.615  0.00  0.00    +0.000 OA
BRANCH  13  14
ATOM     14  C   UNL     1       0.409  -6.575  -0.825  0.00  0.00    +0.000 C 
BRANCH  14  15
ATOM     15  C   UNL     1      -0.425  -7.787  -1.187  0.00  0.00    +0.000 C 
ATOM     16  C   UNL     1      -1.836  -7.335  -1.734  0.00  0.00    +0.000 C 
ENDBRANCH  14  15
BRANCH  14  17
ATOM     17  C   UNL     1       1.733  -6.686  -1.525  0.00  0.00    +0.000 C 
BRANCH  17  18
ATOM     18  C   UNL     1       1.794  -5.760  -2.751  0.00  0.00    +0.000 C 
BRANCH  18  20
ATOM     19  C   UNL     1      -0.098  -4.475  -3.750  0.00  0.00    +0.000 C 
ATOM     20  C   UNL     1       0.923  -4.539  -2.600  0.00  0.00    +0.000 C 
ENDBRANCH  18  20
ENDBRANCH  17  18
ENDBRANCH  14  17
ENDBRANCH  13  14
ENDBRANCH   1  13
TORSDOF 9
ENDMDL
