REMARK  Name = ox2_shuffle_ligand
REMARK  5 active torsions:
REMARK  status: ('A' for Active; 'I' for Inactive)
REMARK    1  A    between atoms: C_1  and  O_2
REMARK    2  A    between atoms: O_2  and  C_3
REMARK    3  A    between atoms: C_6  and  C_7
REMARK    4  A    between atoms: C_7  and  C_9
REMARK    5  A    between atoms: C_15  and  O_16
REMARK                            x       y       z     vdW  Elec       q    Type
REMARK                         _______ _______ _______ _____ _____    ______ ____
ROOT
ATOM      1  C   UNL     1      -4.638  -5.535   3.466  0.00  0.00    +0.000 A 
ATOM      2  C   UNL     1      -4.079  -6.319   4.463  0.00  0.00    +0.000 A 
ATOM      3  C   UNL     1      -2.940  -5.909   5.122  0.00  0.00    +0.000 A 
ATOM      4  C   UNL     1      -2.333  -4.705   4.788  0.00  0.00    +0.000 A 
ATOM      5  C   UNL     1      -2.888  -3.912   3.773  0.00  0.00    +0.000 A 
ATOM      6  C   UNL     1      -4.041  -4.336   3.124  0.00  0.00    +0.000 A 
ENDROOT
BRANCH   1   8
ATOM      7  C   UNL     1      -6.661  -5.105   2.237  0.00  0.00    +0.000 C 
ATOM      8  O   UNL     1      -5.775  -6.002   2.857  0.00  0.00    +0.000 OA
ENDBRANCH   1   8
BRANCH   4   9
ATOM      9  C   UNL     1      -1.087  -4.254   5.504  0.00  0.00    +0.000 C 
ATOM     10  O   UNL     1      -0.587  -3.189   5.220  0.00  0.00    +0.000 OA
BRANCH   9  11
ATOM     11  C   UNL     1      -0.467  -5.114   6.533  0.00  0.00    +0.000 A 
ATOM     12  C   UNL     1      -1.083  -5.301   7.765  0.00  0.00    +0.000 A 
ATOM     13  C   UNL     1      -0.480  -6.101   8.724  0.00  0.00    +0.000 A 
ATOM     14  C   UNL     1       0.736  -6.723   8.449  0.00  0.00    +0.000 A 
ATOM     15  C   UNL     1       1.360  -6.526   7.224  0.00  0.00    +0.000 A 
ATOM     16  C   UNL     1       0.764  -5.706   6.262  0.00  0.00    +0.000 A 
ENDBRANCH   9  11
ENDBRANCH   4   9
BRANCH   5  17
ATOM     17  O   UNL     1      -2.297  -2.731   3.437  0.00  0.00    +0.000 OA
ATOM     18  H   UNL     1      -2.686  -2.169   2.721  0.00  0.00    +0.000 HD
ENDBRANCH   5  17
TORSDOF 4
