MODEL 1
REMARK VINA RESULT:      -4.4      0.000      0.000
REMARK  Name = ox2_shuffle_ligand
REMARK  5 active torsions:
REMARK  status: ('A' for Active; 'I' for Inactive)
REMARK    1  A    between atoms: C_1  and  O_2
REMARK    2  A    between atoms: O_2  and  C_3
REMARK    3  A    between atoms: C_6  and  C_7
REMARK    4  A    between atoms: C_7  and  C_9
REMARK    5  A    between atoms: C_15  and  O_16
REMARK                            x       y       z     vdW  Elec       q    Type
REMARK                         _______ _______ _______ _____ _____    ______ ____
ROOT
ATOM      1  C   UNL     1       5.664  -6.550   5.614  0.00  0.00    +0.000 A 
ATOM      2  C   UNL     1       6.284  -7.449   6.467  0.00  0.00    +0.000 A 
ATOM      3  C   UNL     1       5.999  -7.449   7.815  0.00  0.00    +0.000 A 
ATOM      4  C   UNL     1       5.088  -6.539   8.337  0.00  0.00    +0.000 A 
ATOM      5  C   UNL     1       4.465  -5.620   7.481  0.00  0.00    +0.000 A 
ATOM      6  C   UNL     1       4.758  -5.639   6.123  0.00  0.00    +0.000 A 
ENDROOT
BRANCH   1   8
ATOM      7  C   UNL     1       7.311  -6.366   3.870  0.00  0.00    +0.000 C 
ATOM      8  O   UNL     1       5.991  -6.612   4.283  0.00  0.00    +0.000 OA
ENDBRANCH   1   8
BRANCH   4   9
ATOM      9  C   UNL     1       4.775  -6.533   9.811  0.00  0.00    +0.000 C 
ATOM     10  O   UNL     1       5.218  -5.652  10.512  0.00  0.00    +0.000 OA
BRANCH   9  11
ATOM     11  C   UNL     1       3.948  -7.606  10.400  0.00  0.00    +0.000 A 
ATOM     12  C   UNL     1       2.561  -7.524  10.380  0.00  0.00    +0.000 A 
ATOM     13  C   UNL     1       1.801  -8.534  10.950  0.00  0.00    +0.000 A 
ATOM     14  C   UNL     1       2.427  -9.633  11.533  0.00  0.00    +0.000 A 
ATOM     15  C   UNL     1       3.814  -9.711  11.567  0.00  0.00    +0.000 A 
ATOM     16  C   UNL     1       4.583  -8.686  11.010  0.00  0.00    +0.000 A 
ENDBRANCH   9  11
ENDBRANCH   4   9
BRANCH   5  17
ATOM     17  O   UNL     1       3.573  -4.722   7.986  0.00  0.00    +0.000 OA
ATOM     18  H   UNL     1       2.897  -4.308   7.392  0.00  0.00    +0.000 HD
ENDBRANCH   5  17
TORSDOF 4
ENDMDL
MODEL 2
REMARK VINA RESULT:      -4.4      7.961     10.278
REMARK  Name = ox2_shuffle_ligand
REMARK  5 active torsions:
REMARK  status: ('A' for Active; 'I' for Inactive)
REMARK    1  A    between atoms: C_1  and  O_2
REMARK    2  A    between atoms: O_2  and  C_3
REMARK    3  A    between atoms: C_6  and  C_7
REMARK    4  A    between atoms: C_7  and  C_9
REMARK    5  A    between atoms: C_15  and  O_16
REMARK                            x       y       z     vdW  Elec       q    Type
REMARK                         _______ _______ _______ _____ _____    ______ ____
ROOT
ATOM      1  C   UNL     1      -3.399  -6.635   9.081  0.00  0.00    +0.000 A 
ATOM      2  C   UNL     1      -4.571  -6.219   8.469  0.00  0.00    +0.000 A 
ATOM      3  C   UNL     1      -4.560  -5.174   7.570  0.00  0.00    +0.000 A 
ATOM      4  C   UNL     1      -3.371  -4.520   7.271  0.00  0.00    +0.000 A 
ATOM      5  C   UNL     1      -2.184  -4.930   7.895  0.00  0.00    +0.000 A 
ATOM      6  C   UNL     1      -2.211  -5.990   8.793  0.00  0.00    +0.000 A 
ENDROOT
BRANCH   1   8
ATOM      7  C   UNL     1      -2.341  -8.114  10.657  0.00  0.00    +0.000 C 
ATOM      8  O   UNL     1      -3.484  -7.685   9.960  0.00  0.00    +0.000 OA
ENDBRANCH   1   8
BRANCH   4   9
ATOM      9  C   UNL     1      -3.355  -3.377   6.291  0.00  0.00    +0.000 C 
ATOM     10  O   UNL     1      -2.986  -3.570   5.154  0.00  0.00    +0.000 OA
BRANCH   9  11
ATOM     11  C   UNL     1      -3.767  -2.024   6.718  0.00  0.00    +0.000 A 
ATOM     12  C   UNL     1      -4.932  -1.837   7.453  0.00  0.00    +0.000 A 
ATOM     13  C   UNL     1      -5.311  -0.559   7.834  0.00  0.00    +0.000 A 
ATOM     14  C   UNL     1      -4.520   0.535   7.488  0.00  0.00    +0.000 A 
ATOM     15  C   UNL     1      -3.363   0.352   6.741  0.00  0.00    +0.000 A 
ATOM     16  C   UNL     1      -2.988  -0.933   6.340  0.00  0.00    +0.000 A 
ENDBRANCH   9  11
ENDBRANCH   4   9
BRANCH   5  17
ATOM     17  O   UNL     1      -1.014  -4.292   7.610  0.00  0.00    +0.000 OA
ATOM     18  H   UNL     1      -0.205  -4.477   8.150  0.00  0.00    +0.000 HD
ENDBRANCH   5  17
TORSDOF 4
ENDMDL
MODEL 3
REMARK VINA RESULT:      -4.3      8.011     10.351
REMARK  Name = ox2_shuffle_ligand
REMARK  5 active torsions:
REMARK  status: ('A' for Active; 'I' for Inactive)
REMARK    1  A    between atoms: C_1  and  O_2
REMARK    2  A    between atoms: O_2  and  C_3
REMARK    3  A    between atoms: C_6  and  C_7
REMARK    4  A    between atoms: C_7  and  C_9
REMARK    5  A    between atoms: C_15  and  O_16
REMARK                            x       y       z     vdW  Elec       q    Type
REMARK                         _______ _______ _______ _____ _____    ______ ____
ROOT
ATOM      1  C   UNL     1      -3.484  -6.607   9.111  0.00  0.00    +0.000 A 
ATOM      2  C   UNL     1      -4.643  -6.178   8.483  0.00  0.00    +0.000 A 
ATOM      3  C   UNL     1      -4.606  -5.146   7.570  0.00  0.00    +0.000 A 
ATOM      4  C   UNL     1      -3.403  -4.517   7.274  0.00  0.00    +0.000 A 
ATOM      5  C   UNL     1      -2.229  -4.940   7.914  0.00  0.00    +0.000 A 
ATOM      6  C   UNL     1      -2.282  -5.987   8.825  0.00  0.00    +0.000 A 
ENDROOT
BRANCH   1   8
ATOM      7  C   UNL     1      -3.267  -8.951   9.608  0.00  0.00    +0.000 C 
ATOM      8  O   UNL     1      -3.595  -7.644  10.003  0.00  0.00    +0.000 OA
ENDBRANCH   1   8
BRANCH   4   9
ATOM      9  C   UNL     1      -3.357  -3.387   6.279  0.00  0.00    +0.000 C 
ATOM     10  O   UNL     1      -2.980  -3.601   5.149  0.00  0.00    +0.000 OA
BRANCH   9  11
ATOM     11  C   UNL     1      -3.752  -2.022   6.684  0.00  0.00    +0.000 A 
ATOM     12  C   UNL     1      -2.978  -0.925   6.326  0.00  0.00    +0.000 A 
ATOM     13  C   UNL     1      -3.357   0.347   6.725  0.00  0.00    +0.000 A 
ATOM     14  C   UNL     1      -4.516   0.526   7.476  0.00  0.00    +0.000 A 
ATOM     15  C   UNL     1      -5.284  -0.570   7.847  0.00  0.00    +0.000 A 
ATOM     16  C   UNL     1      -4.896  -1.856   7.461  0.00  0.00    +0.000 A 
ENDBRANCH   9  11
ENDBRANCH   4   9
BRANCH   5  17
ATOM     17  O   UNL     1      -1.045  -4.326   7.631  0.00  0.00    +0.000 OA
ATOM     18  H   UNL     1      -1.001  -3.339   7.577  0.00  0.00    +0.000 HD
ENDBRANCH   5  17
TORSDOF 4
ENDMDL
MODEL 4
REMARK VINA RESULT:      -4.3      9.479     11.308
REMARK  Name = ox2_shuffle_ligand
REMARK  5 active torsions:
REMARK  status: ('A' for Active; 'I' for Inactive)
REMARK    1  A    between atoms: C_1  and  O_2
REMARK    2  A    between atoms: O_2  and  C_3
REMARK    3  A    between atoms: C_6  and  C_7
REMARK    4  A    between atoms: C_7  and  C_9
REMARK    5  A    between atoms: C_15  and  O_16
REMARK                            x       y       z     vdW  Elec       q    Type
REMARK                         _______ _______ _______ _____ _____    ______ ____
ROOT
ATOM      1  C   UNL     1      -5.670  -3.557   7.824  0.00  0.00    +0.000 A 
ATOM      2  C   UNL     1      -5.747  -2.267   8.326  0.00  0.00    +0.000 A 
ATOM      3  C   UNL     1      -4.899  -1.284   7.865  0.00  0.00    +0.000 A 
ATOM      4  C   UNL     1      -3.949  -1.576   6.894  0.00  0.00    +0.000 A 
ATOM      5  C   UNL     1      -3.860  -2.882   6.389  0.00  0.00    +0.000 A 
ATOM      6  C   UNL     1      -4.728  -3.860   6.859  0.00  0.00    +0.000 A 
ENDROOT
BRANCH   1   8
ATOM      7  C   UNL     1      -6.068  -5.626   8.985  0.00  0.00    +0.000 C 
ATOM      8  O   UNL     1      -6.550  -4.484   8.324  0.00  0.00    +0.000 OA
ENDBRANCH   1   8
BRANCH   4   9
ATOM      9  C   UNL     1      -3.019  -0.505   6.389  0.00  0.00    +0.000 C 
ATOM     10  O   UNL     1      -2.912  -0.319   5.198  0.00  0.00    +0.000 OA
BRANCH   9  11
ATOM     11  C   UNL     1      -2.226   0.301   7.339  0.00  0.00    +0.000 A 
ATOM     12  C   UNL     1      -2.355   1.685   7.374  0.00  0.00    +0.000 A 
ATOM     13  C   UNL     1      -1.593   2.428   8.264  0.00  0.00    +0.000 A 
ATOM     14  C   UNL     1      -0.707   1.786   9.127  0.00  0.00    +0.000 A 
ATOM     15  C   UNL     1      -0.566   0.405   9.084  0.00  0.00    +0.000 A 
ATOM     16  C   UNL     1      -1.319  -0.344   8.176  0.00  0.00    +0.000 A 
ENDBRANCH   9  11
ENDBRANCH   4   9
BRANCH   5  17
ATOM     17  O   UNL     1      -2.929  -3.178   5.439  0.00  0.00    +0.000 OA
ATOM     18  H   UNL     1      -1.993  -2.877   5.552  0.00  0.00    +0.000 HD
ENDBRANCH   5  17
TORSDOF 4
ENDMDL
MODEL 5
REMARK VINA RESULT:      -4.2      8.391     10.791
REMARK  Name = ox2_shuffle_ligand
REMARK  5 active torsions:
REMARK  status: ('A' for Active; 'I' for Inactive)
REMARK    1  A    between atoms: C_1  and  O_2
REMARK    2  A    between atoms: O_2  and  C_3
REMARK    3  A    between atoms: C_6  and  C_7
REMARK    4  A    between atoms: C_7  and  C_9
REMARK    5  A    between atoms: C_15  and  O_16
REMARK                            x       y       z     vdW  Elec       q    Type
REMARK                         _______ _______ _______ _____ _____    ______ ____
ROOT
ATOM      1  C   UNL     1      -5.134  -5.953   8.988  0.00  0.00    +0.000 A 
ATOM      2  C   UNL     1      -5.814  -4.841   8.517  0.00  0.00    +0.000 A 
ATOM      3  C   UNL     1      -5.196  -3.950   7.666  0.00  0.00    +0.000 A 
ATOM      4  C   UNL     1      -3.879  -4.153   7.275  0.00  0.00    +0.000 A 
ATOM      5  C   UNL     1      -3.183  -5.272   7.755  0.00  0.00    +0.000 A 
ATOM      6  C   UNL     1      -3.822  -6.164   8.607  0.00  0.00    +0.000 A 
ENDROOT
BRANCH   1   8
ATOM      7  C   UNL     1      -7.020  -7.387   9.410  0.00  0.00    +0.000 C 
ATOM      8  O   UNL     1      -5.812  -6.801   9.826  0.00  0.00    +0.000 OA
ENDBRANCH   1   8
BRANCH   4   9
ATOM      9  C   UNL     1      -3.199  -3.181   6.346  0.00  0.00    +0.000 C 
ATOM     10  O   UNL     1      -2.945  -3.517   5.212  0.00  0.00    +0.000 OA
BRANCH   9  11
ATOM     11  C   UNL     1      -2.828  -1.833   6.822  0.00  0.00    +0.000 A 
ATOM     12  C   UNL     1      -2.173  -1.666   8.037  0.00  0.00    +0.000 A 
ATOM     13  C   UNL     1      -1.843  -0.392   8.474  0.00  0.00    +0.000 A 
ATOM     14  C   UNL     1      -2.161   0.718   7.693  0.00  0.00    +0.000 A 
ATOM     15  C   UNL     1      -2.828   0.554   6.486  0.00  0.00    +0.000 A 
ATOM     16  C   UNL     1      -3.177  -0.727   6.051  0.00  0.00    +0.000 A 
ENDBRANCH   9  11
ENDBRANCH   4   9
BRANCH   5  17
ATOM     17  O   UNL     1      -1.889  -5.477   7.379  0.00  0.00    +0.000 OA
ATOM     18  H   UNL     1      -1.231  -5.818   8.035  0.00  0.00    +0.000 HD
ENDBRANCH   5  17
TORSDOF 4
ENDMDL
MODEL 6
REMARK VINA RESULT:      -4.2      8.386     10.684
REMARK  Name = ox2_shuffle_ligand
REMARK  5 active torsions:
REMARK  status: ('A' for Active; 'I' for Inactive)
REMARK    1  A    between atoms: C_1  and  O_2
REMARK    2  A    between atoms: O_2  and  C_3
REMARK    3  A    between atoms: C_6  and  C_7
REMARK    4  A    between atoms: C_7  and  C_9
REMARK    5  A    between atoms: C_15  and  O_16
REMARK                            x       y       z     vdW  Elec       q    Type
REMARK                         _______ _______ _______ _____ _____    ______ ____
ROOT
ATOM      1  C   UNL     1      -5.120  -5.900   9.065  0.00  0.00    +0.000 A 
ATOM      2  C   UNL     1      -5.815  -4.808   8.568  0.00  0.00    +0.000 A 
ATOM      3  C   UNL     1      -5.207  -3.926   7.701  0.00  0.00    +0.000 A 
ATOM      4  C   UNL     1      -3.884  -4.116   7.321  0.00  0.00    +0.000 A 
ATOM      5  C   UNL     1      -3.173  -5.213   7.829  0.00  0.00    +0.000 A 
ATOM      6  C   UNL     1      -3.803  -6.098   8.695  0.00  0.00    +0.000 A 
ENDROOT
BRANCH   1   8
ATOM      7  C   UNL     1      -5.167  -7.193  11.093  0.00  0.00    +0.000 C 
ATOM      8  O   UNL     1      -5.790  -6.741   9.918  0.00  0.00    +0.000 OA
ENDBRANCH   1   8
BRANCH   4   9
ATOM      9  C   UNL     1      -3.215  -3.153   6.377  0.00  0.00    +0.000 C 
ATOM     10  O   UNL     1      -2.949  -3.508   5.250  0.00  0.00    +0.000 OA
BRANCH   9  11
ATOM     11  C   UNL     1      -2.868  -1.789   6.826  0.00  0.00    +0.000 A 
ATOM     12  C   UNL     1      -3.173  -0.684   6.039  0.00  0.00    +0.000 A 
ATOM     13  C   UNL     1      -2.827   0.587   6.471  0.00  0.00    +0.000 A 
ATOM     14  C   UNL     1      -2.184   0.757   7.695  0.00  0.00    +0.000 A 
ATOM     15  C   UNL     1      -1.865  -0.346   8.476  0.00  0.00    +0.000 A 
ATOM     16  C   UNL     1      -2.196  -1.631   8.036  0.00  0.00    +0.000 A 
ENDBRANCH   9  11
ENDBRANCH   4   9
BRANCH   5  17
ATOM     17  O   UNL     1      -1.874  -5.406   7.464  0.00  0.00    +0.000 OA
ATOM     18  H   UNL     1      -1.507  -4.935   6.674  0.00  0.00    +0.000 HD
ENDBRANCH   5  17
TORSDOF 4
ENDMDL
MODEL 7
REMARK VINA RESULT:      -4.1      8.200     10.532
REMARK  Name = ox2_shuffle_ligand
REMARK  5 active torsions:
REMARK  status: ('A' for Active; 'I' for Inactive)
REMARK    1  A    between atoms: C_1  and  O_2
REMARK    2  A    between atoms: O_2  and  C_3
REMARK    3  A    between atoms: C_6  and  C_7
REMARK    4  A    between atoms: C_7  and  C_9
REMARK    5  A    between atoms: C_15  and  O_16
REMARK                            x       y       z     vdW  Elec       q    Type
REMARK                         _______ _______ _______ _____ _____    ______ ____
ROOT
ATOM      1  C   UNL     1      -5.020  -4.781   8.358  0.00  0.00    +0.000 A 
ATOM      2  C   UNL     1      -5.001  -3.597   9.078  0.00  0.00    +0.000 A 
ATOM      3  C   UNL     1      -3.898  -2.771   9.039  0.00  0.00    +0.000 A 
ATOM      4  C   UNL     1      -2.787  -3.121   8.282  0.00  0.00    +0.000 A 
ATOM      5  C   UNL     1      -2.797  -4.323   7.559  0.00  0.00    +0.000 A 
ATOM      6  C   UNL     1      -3.920  -5.140   7.602  0.00  0.00    +0.000 A 
ENDROOT
BRANCH   1   8
ATOM      7  C   UNL     1      -6.775  -5.761   9.680  0.00  0.00    +0.000 C 
ATOM      8  O   UNL     1      -6.153  -5.551   8.438  0.00  0.00    +0.000 OA
ENDBRANCH   1   8
BRANCH   4   9
ATOM      9  C   UNL     1      -1.579  -2.222   8.238  0.00  0.00    +0.000 C 
ATOM     10  O   UNL     1      -0.488  -2.675   8.500  0.00  0.00    +0.000 OA
BRANCH   9  11
ATOM     11  C   UNL     1      -1.727  -0.792   7.897  0.00  0.00    +0.000 A 
ATOM     12  C   UNL     1      -2.573  -0.393   6.869  0.00  0.00    +0.000 A 
ATOM     13  C   UNL     1      -2.690   0.953   6.554  0.00  0.00    +0.000 A 
ATOM     14  C   UNL     1      -1.966   1.902   7.272  0.00  0.00    +0.000 A 
ATOM     15  C   UNL     1      -1.109   1.504   8.290  0.00  0.00    +0.000 A 
ATOM     16  C   UNL     1      -0.976   0.148   8.599  0.00  0.00    +0.000 A 
ENDBRANCH   9  11
ENDBRANCH   4   9
BRANCH   5  17
ATOM     17  O   UNL     1      -1.711  -4.675   6.816  0.00  0.00    +0.000 OA
ATOM     18  H   UNL     1      -0.889  -4.997   7.263  0.00  0.00    +0.000 HD
ENDBRANCH   5  17
TORSDOF 4
ENDMDL
MODEL 8
REMARK VINA RESULT:      -4.0      1.033      1.741
REMARK  Name = ox2_shuffle_ligand
REMARK  5 active torsions:
REMARK  status: ('A' for Active; 'I' for Inactive)
REMARK    1  A    between atoms: C_1  and  O_2
REMARK    2  A    between atoms: O_2  and  C_3
REMARK    3  A    between atoms: C_6  and  C_7
REMARK    4  A    between atoms: C_7  and  C_9
REMARK    5  A    between atoms: C_15  and  O_16
REMARK                            x       y       z     vdW  Elec       q    Type
REMARK                         _______ _______ _______ _____ _____    ______ ____
ROOT
ATOM      1  C   UNL     1       5.690  -6.462   5.835  0.00  0.00    +0.000 A 
ATOM      2  C   UNL     1       4.736  -5.673   6.459  0.00  0.00    +0.000 A 
ATOM      3  C   UNL     1       4.483  -5.813   7.807  0.00  0.00    +0.000 A 
ATOM      4  C   UNL     1       5.177  -6.755   8.555  0.00  0.00    +0.000 A 
ATOM      5  C   UNL     1       6.136  -7.564   7.927  0.00  0.00    +0.000 A 
ATOM      6  C   UNL     1       6.385  -7.404   6.569  0.00  0.00    +0.000 A 
ENDROOT
BRANCH   1   8
ATOM      7  C   UNL     1       7.111  -6.644   3.902  0.00  0.00    +0.000 C 
ATOM      8  O   UNL     1       5.894  -6.264   4.493  0.00  0.00    +0.000 OA
ENDBRANCH   1   8
BRANCH   4   9
ATOM      9  C   UNL     1       4.902  -6.914  10.028  0.00  0.00    +0.000 C 
ATOM     10  O   UNL     1       5.597  -6.333  10.831  0.00  0.00    +0.000 OA
BRANCH   9  11
ATOM     11  C   UNL     1       3.804  -7.787  10.490  0.00  0.00    +0.000 A 
ATOM     12  C   UNL     1       2.477  -7.412  10.310  0.00  0.00    +0.000 A 
ATOM     13  C   UNL     1       1.459  -8.238  10.762  0.00  0.00    +0.000 A 
ATOM     14  C   UNL     1       1.766  -9.444  11.388  0.00  0.00    +0.000 A 
ATOM     15  C   UNL     1       3.091  -9.813  11.582  0.00  0.00    +0.000 A 
ATOM     16  C   UNL     1       4.120  -8.975  11.144  0.00  0.00    +0.000 A 
ENDBRANCH   9  11
ENDBRANCH   4   9
BRANCH   5  17
ATOM     17  O   UNL     1       6.820  -8.492   8.653  0.00  0.00    +0.000 OA
ATOM     18  H   UNL     1       7.745  -8.736   8.400  0.00  0.00    +0.000 HD
ENDBRANCH   5  17
TORSDOF 4
ENDMDL
MODEL 9
REMARK VINA RESULT:      -4.0      7.555      9.631
REMARK  Name = ox2_shuffle_ligand
REMARK  5 active torsions:
REMARK  status: ('A' for Active; 'I' for Inactive)
REMARK    1  A    between atoms: C_1  and  O_2
REMARK    2  A    between atoms: O_2  and  C_3
REMARK    3  A    between atoms: C_6  and  C_7
REMARK    4  A    between atoms: C_7  and  C_9
REMARK    5  A    between atoms: C_15  and  O_16
REMARK                            x       y       z     vdW  Elec       q    Type
REMARK                         _______ _______ _______ _____ _____    ______ ____
ROOT
ATOM      1  C   UNL     1      -1.018  -5.513   9.608  0.00  0.00    +0.000 A 
ATOM      2  C   UNL     1      -0.529  -4.270   9.239  0.00  0.00    +0.000 A 
ATOM      3  C   UNL     1      -1.145  -3.540   8.246  0.00  0.00    +0.000 A 
ATOM      4  C   UNL     1      -2.263  -4.046   7.596  0.00  0.00    +0.000 A 
ATOM      5  C   UNL     1      -2.757  -5.308   7.957  0.00  0.00    +0.000 A 
ATOM      6  C   UNL     1      -2.129  -6.028   8.966  0.00  0.00    +0.000 A 
ENDROOT
BRANCH   1   8
ATOM      7  C   UNL     1       1.039  -6.316  10.562  0.00  0.00    +0.000 C 
ATOM      8  O   UNL     1      -0.359  -6.182  10.608  0.00  0.00    +0.000 OA
ENDBRANCH   1   8
BRANCH   4   9
ATOM      9  C   UNL     1      -2.939  -3.253   6.508  0.00  0.00    +0.000 C 
ATOM     10  O   UNL     1      -2.941  -3.675   5.374  0.00  0.00    +0.000 OA
BRANCH   9  11
ATOM     11  C   UNL     1      -3.578  -1.958   6.820  0.00  0.00    +0.000 A 
ATOM     12  C   UNL     1      -2.951  -0.761   6.493  0.00  0.00    +0.000 A 
ATOM     13  C   UNL     1      -3.559   0.445   6.804  0.00  0.00    +0.000 A 
ATOM     14  C   UNL     1      -4.801   0.457   7.435  0.00  0.00    +0.000 A 
ATOM     15  C   UNL     1      -5.423  -0.737   7.776  0.00  0.00    +0.000 A 
ATOM     16  C   UNL     1      -4.805  -1.954   7.479  0.00  0.00    +0.000 A 
ENDBRANCH   9  11
ENDBRANCH   4   9
BRANCH   5  17
ATOM     17  O   UNL     1      -3.852  -5.814   7.322  0.00  0.00    +0.000 OA
ATOM     18  H   UNL     1      -3.740  -6.477   6.596  0.00  0.00    +0.000 HD
ENDBRANCH   5  17
TORSDOF 4
ENDMDL
