REMARK  Name = ox2_shuffle_ligand
REMARK  5 active torsions:
REMARK  status: ('A' for Active; 'I' for Inactive)
REMARK    1  A    between atoms: C_1  and  O_2
REMARK    2  A    between atoms: O_2  and  C_3
REMARK    3  A    between atoms: C_6  and  C_7
REMARK    4  A    between atoms: C_7  and  C_9
REMARK    5  A    between atoms: C_15  and  O_16
REMARK                            x       y       z     vdW  Elec       q    Type
REMARK                         _______ _______ _______ _____ _____    ______ ____
ROOT
ATOM      1  C   UNL     1       5.273   9.268  -3.440  0.00  0.00    +0.000 A 
ATOM      2  C   UNL     1       4.056   9.929  -3.501  0.00  0.00    +0.000 A 
ATOM      3  C   UNL     1       2.905   9.320  -3.048  0.00  0.00    +0.000 A 
ATOM      4  C   UNL     1       2.951   8.032  -2.531  0.00  0.00    +0.000 A 
ATOM      5  C   UNL     1       4.178   7.355  -2.476  0.00  0.00    +0.000 A 
ATOM      6  C   UNL     1       5.330   7.985  -2.930  0.00  0.00    +0.000 A 
ENDROOT
BRANCH   1   8
ATOM      7  C   UNL     1       7.658   9.586  -3.441  0.00  0.00    +0.000 C 
ATOM      8  O   UNL     1       6.379   9.936  -3.903  0.00  0.00    +0.000 OA
ENDBRANCH   1   8
BRANCH   4   9
ATOM      9  C   UNL     1       1.696   7.363  -2.037  0.00  0.00    +0.000 C 
ATOM     10  O   UNL     1       1.758   6.251  -1.564  0.00  0.00    +0.000 OA
BRANCH   9  11
ATOM     11  C   UNL     1       0.392   8.051  -2.147  0.00  0.00    +0.000 A 
ATOM     12  C   UNL     1       0.101   9.147  -1.343  0.00  0.00    +0.000 A 
ATOM     13  C   UNL     1      -1.132   9.772  -1.449  0.00  0.00    +0.000 A 
ATOM     14  C   UNL     1      -2.073   9.309  -2.367  0.00  0.00    +0.000 A 
ATOM     15  C   UNL     1      -1.788   8.204  -3.160  0.00  0.00    +0.000 A 
ATOM     16  C   UNL     1      -0.554   7.561  -3.043  0.00  0.00    +0.000 A 
ENDBRANCH   9  11
ENDBRANCH   4   9
BRANCH   5  17
ATOM     17  O   UNL     1       4.231   6.090  -1.974  0.00  0.00    +0.000 OA
ATOM     18  H   UNL     1       5.095   5.609  -1.934  0.00  0.00    +0.000 HD
ENDBRANCH   5  17
TORSDOF 4
