MODEL 1
REMARK VINA RESULT:      -3.4      0.000      0.000
REMARK  Name = ox2_shuffle_ligand
REMARK  5 active torsions:
REMARK  status: ('A' for Active; 'I' for Inactive)
REMARK    1  A    between atoms: C_1  and  O_2
REMARK    2  A    between atoms: O_2  and  C_3
REMARK    3  A    between atoms: C_6  and  C_7
REMARK    4  A    between atoms: C_7  and  C_9
REMARK    5  A    between atoms: C_15  and  O_16
REMARK                            x       y       z     vdW  Elec       q    Type
REMARK                         _______ _______ _______ _____ _____    ______ ____
ROOT
ATOM      1  C   UNL     1       3.449   3.143   1.629  0.00  0.00    +0.000 A 
ATOM      2  C   UNL     1       4.823   3.001   1.742  0.00  0.00    +0.000 A 
ATOM      3  C   UNL     1       5.439   3.106   2.970  0.00  0.00    +0.000 A 
ATOM      4  C   UNL     1       4.689   3.364   4.110  0.00  0.00    +0.000 A 
ATOM      5  C   UNL     1       3.300   3.518   4.000  0.00  0.00    +0.000 A 
ATOM      6  C   UNL     1       2.693   3.402   2.756  0.00  0.00    +0.000 A 
ENDROOT
BRANCH   1   8
ATOM      7  C   UNL     1       3.279   1.954  -0.456  0.00  0.00    +0.000 C 
ATOM      8  O   UNL     1       2.901   3.020   0.376  0.00  0.00    +0.000 OA
ENDBRANCH   1   8
BRANCH   4   9
ATOM      9  C   UNL     1       5.359   3.481   5.454  0.00  0.00    +0.000 C 
ATOM     10  O   UNL     1       5.567   4.577   5.924  0.00  0.00    +0.000 OA
BRANCH   9  11
ATOM     11  C   UNL     1       5.778   2.267   6.186  0.00  0.00    +0.000 A 
ATOM     12  C   UNL     1       6.941   1.594   5.832  0.00  0.00    +0.000 A 
ATOM     13  C   UNL     1       7.312   0.449   6.521  0.00  0.00    +0.000 A 
ATOM     14  C   UNL     1       6.526  -0.019   7.572  0.00  0.00    +0.000 A 
ATOM     15  C   UNL     1       5.355   0.645   7.916  0.00  0.00    +0.000 A 
ATOM     16  C   UNL     1       4.969   1.788   7.213  0.00  0.00    +0.000 A 
ENDBRANCH   9  11
ENDBRANCH   4   9
BRANCH   5  17
ATOM     17  O   UNL     1       2.557   3.775   5.113  0.00  0.00    +0.000 OA
ATOM     18  H   UNL     1       1.828   3.159   5.375  0.00  0.00    +0.000 HD
ENDBRANCH   5  17
TORSDOF 4
ENDMDL
MODEL 2
REMARK VINA RESULT:      -3.3      2.558      4.601
REMARK  Name = ox2_shuffle_ligand
REMARK  5 active torsions:
REMARK  status: ('A' for Active; 'I' for Inactive)
REMARK    1  A    between atoms: C_1  and  O_2
REMARK    2  A    between atoms: O_2  and  C_3
REMARK    3  A    between atoms: C_6  and  C_7
REMARK    4  A    between atoms: C_7  and  C_9
REMARK    5  A    between atoms: C_15  and  O_16
REMARK                            x       y       z     vdW  Elec       q    Type
REMARK                         _______ _______ _______ _____ _____    ______ ____
ROOT
ATOM      1  C   UNL     1       4.258   6.166   7.520  0.00  0.00    +0.000 A 
ATOM      2  C   UNL     1       5.509   6.138   6.922  0.00  0.00    +0.000 A 
ATOM      3  C   UNL     1       5.810   5.184   5.973  0.00  0.00    +0.000 A 
ATOM      4  C   UNL     1       4.865   4.234   5.610  0.00  0.00    +0.000 A 
ATOM      5  C   UNL     1       3.601   4.252   6.218  0.00  0.00    +0.000 A 
ATOM      6  C   UNL     1       3.311   5.224   7.168  0.00  0.00    +0.000 A 
ENDROOT
BRANCH   1   8
ATOM      7  C   UNL     1       3.490   8.383   8.054  0.00  0.00    +0.000 C 
ATOM      8  O   UNL     1       4.025   7.146   8.451  0.00  0.00    +0.000 OA
ENDBRANCH   1   8
BRANCH   4   9
ATOM      9  C   UNL     1       5.191   3.190   4.576  0.00  0.00    +0.000 C 
ATOM     10  O   UNL     1       4.644   3.226   3.497  0.00  0.00    +0.000 OA
BRANCH   9  11
ATOM     11  C   UNL     1       6.158   2.115   4.882  0.00  0.00    +0.000 A 
ATOM     12  C   UNL     1       7.008   1.627   3.896  0.00  0.00    +0.000 A 
ATOM     13  C   UNL     1       7.900   0.609   4.196  0.00  0.00    +0.000 A 
ATOM     14  C   UNL     1       7.951   0.082   5.486  0.00  0.00    +0.000 A 
ATOM     15  C   UNL     1       7.090   0.559   6.467  0.00  0.00    +0.000 A 
ATOM     16  C   UNL     1       6.178   1.572   6.164  0.00  0.00    +0.000 A 
ENDBRANCH   9  11
ENDBRANCH   4   9
BRANCH   5  17
ATOM     17  O   UNL     1       2.670   3.321   5.870  0.00  0.00    +0.000 OA
ATOM     18  H   UNL     1       2.334   3.280   4.940  0.00  0.00    +0.000 HD
ENDBRANCH   5  17
TORSDOF 4
ENDMDL
MODEL 3
REMARK VINA RESULT:      -3.3      3.053      4.679
REMARK  Name = ox2_shuffle_ligand
REMARK  5 active torsions:
REMARK  status: ('A' for Active; 'I' for Inactive)
REMARK    1  A    between atoms: C_1  and  O_2
REMARK    2  A    between atoms: O_2  and  C_3
REMARK    3  A    between atoms: C_6  and  C_7
REMARK    4  A    between atoms: C_7  and  C_9
REMARK    5  A    between atoms: C_15  and  O_16
REMARK                            x       y       z     vdW  Elec       q    Type
REMARK                         _______ _______ _______ _____ _____    ______ ____
ROOT
ATOM      1  C   UNL     1       4.851   6.105   7.085  0.00  0.00    +0.000 A 
ATOM      2  C   UNL     1       6.049   5.552   7.510  0.00  0.00    +0.000 A 
ATOM      3  C   UNL     1       6.247   4.189   7.462  0.00  0.00    +0.000 A 
ATOM      4  C   UNL     1       5.244   3.351   6.993  0.00  0.00    +0.000 A 
ATOM      5  C   UNL     1       4.026   3.904   6.571  0.00  0.00    +0.000 A 
ATOM      6  C   UNL     1       3.844   5.281   6.619  0.00  0.00    +0.000 A 
ENDROOT
BRANCH   1   8
ATOM      7  C   UNL     1       3.454   8.064   7.084  0.00  0.00    +0.000 C 
ATOM      8  O   UNL     1       4.724   7.470   7.156  0.00  0.00    +0.000 OA
ENDBRANCH   1   8
BRANCH   4   9
ATOM      9  C   UNL     1       5.456   1.862   6.940  0.00  0.00    +0.000 C 
ATOM     10  O   UNL     1       4.823   1.141   7.677  0.00  0.00    +0.000 OA
BRANCH   9  11
ATOM     11  C   UNL     1       6.447   1.283   6.008  0.00  0.00    +0.000 A 
ATOM     12  C   UNL     1       6.529   1.732   4.695  0.00  0.00    +0.000 A 
ATOM     13  C   UNL     1       7.455   1.169   3.830  0.00  0.00    +0.000 A 
ATOM     14  C   UNL     1       8.307   0.161   4.279  0.00  0.00    +0.000 A 
ATOM     15  C   UNL     1       8.215  -0.299   5.587  0.00  0.00    +0.000 A 
ATOM     16  C   UNL     1       7.271   0.254   6.456  0.00  0.00    +0.000 A 
ENDBRANCH   9  11
ENDBRANCH   4   9
BRANCH   5  17
ATOM     17  O   UNL     1       3.036   3.089   6.113  0.00  0.00    +0.000 OA
ATOM     18  H   UNL     1       2.705   3.185   5.185  0.00  0.00    +0.000 HD
ENDBRANCH   5  17
TORSDOF 4
ENDMDL
MODEL 4
REMARK VINA RESULT:      -3.3      1.742      5.737
REMARK  Name = ox2_shuffle_ligand
REMARK  5 active torsions:
REMARK  status: ('A' for Active; 'I' for Inactive)
REMARK    1  A    between atoms: C_1  and  O_2
REMARK    2  A    between atoms: O_2  and  C_3
REMARK    3  A    between atoms: C_6  and  C_7
REMARK    4  A    between atoms: C_7  and  C_9
REMARK    5  A    between atoms: C_15  and  O_16
REMARK                            x       y       z     vdW  Elec       q    Type
REMARK                         _______ _______ _______ _____ _____    ______ ____
ROOT
ATOM      1  C   UNL     1       6.337   0.375   7.383  0.00  0.00    +0.000 A 
ATOM      2  C   UNL     1       7.010   0.640   6.201  0.00  0.00    +0.000 A 
ATOM      3  C   UNL     1       6.660   1.724   5.424  0.00  0.00    +0.000 A 
ATOM      4  C   UNL     1       5.622   2.560   5.814  0.00  0.00    +0.000 A 
ATOM      5  C   UNL     1       4.931   2.290   7.004  0.00  0.00    +0.000 A 
ATOM      6  C   UNL     1       5.300   1.198   7.780  0.00  0.00    +0.000 A 
ENDROOT
BRANCH   1   8
ATOM      7  C   UNL     1       8.030  -1.244   7.931  0.00  0.00    +0.000 C 
ATOM      8  O   UNL     1       6.741  -0.717   8.110  0.00  0.00    +0.000 OA
ENDBRANCH   1   8
BRANCH   4   9
ATOM      9  C   UNL     1       5.236   3.743   4.967  0.00  0.00    +0.000 C 
ATOM     10  O   UNL     1       5.589   4.853   5.295  0.00  0.00    +0.000 OA
BRANCH   9  11
ATOM     11  C   UNL     1       4.413   3.554   3.754  0.00  0.00    +0.000 A 
ATOM     12  C   UNL     1       3.034   3.718   3.803  0.00  0.00    +0.000 A 
ATOM     13  C   UNL     1       2.275   3.523   2.658  0.00  0.00    +0.000 A 
ATOM     14  C   UNL     1       2.896   3.174   1.460  0.00  0.00    +0.000 A 
ATOM     15  C   UNL     1       4.273   2.996   1.415  0.00  0.00    +0.000 A 
ATOM     16  C   UNL     1       5.038   3.173   2.569  0.00  0.00    +0.000 A 
ENDBRANCH   9  11
ENDBRANCH   4   9
BRANCH   5  17
ATOM     17  O   UNL     1       3.909   3.103   7.392  0.00  0.00    +0.000 OA
ATOM     18  H   UNL     1       3.420   3.639   6.719  0.00  0.00    +0.000 HD
ENDBRANCH   5  17
TORSDOF 4
ENDMDL
MODEL 5
REMARK VINA RESULT:      -3.3      1.809      3.006
REMARK  Name = ox2_shuffle_ligand
REMARK  5 active torsions:
REMARK  status: ('A' for Active; 'I' for Inactive)
REMARK    1  A    between atoms: C_1  and  O_2
REMARK    2  A    between atoms: O_2  and  C_3
REMARK    3  A    between atoms: C_6  and  C_7
REMARK    4  A    between atoms: C_7  and  C_9
REMARK    5  A    between atoms: C_15  and  O_16
REMARK                            x       y       z     vdW  Elec       q    Type
REMARK                         _______ _______ _______ _____ _____    ______ ____
ROOT
ATOM      1  C   UNL     1       2.542   3.558   2.708  0.00  0.00    +0.000 A 
ATOM      2  C   UNL     1       3.063   3.732   3.981  0.00  0.00    +0.000 A 
ATOM      3  C   UNL     1       4.409   3.548   4.217  0.00  0.00    +0.000 A 
ATOM      4  C   UNL     1       5.258   3.178   3.182  0.00  0.00    +0.000 A 
ATOM      5  C   UNL     1       4.734   2.991   1.895  0.00  0.00    +0.000 A 
ATOM      6  C   UNL     1       3.377   3.187   1.671  0.00  0.00    +0.000 A 
ENDROOT
BRANCH   1   8
ATOM      7  C   UNL     1       0.722   4.472   1.427  0.00  0.00    +0.000 C 
ATOM      8  O   UNL     1       1.195   3.763   2.543  0.00  0.00    +0.000 OA
ENDBRANCH   1   8
BRANCH   4   9
ATOM      9  C   UNL     1       6.728   2.974   3.437  0.00  0.00    +0.000 C 
ATOM     10  O   UNL     1       7.528   3.752   2.970  0.00  0.00    +0.000 OA
BRANCH   9  11
ATOM     11  C   UNL     1       7.193   1.819   4.234  0.00  0.00    +0.000 A 
ATOM     12  C   UNL     1       6.878   1.721   5.585  0.00  0.00    +0.000 A 
ATOM     13  C   UNL     1       7.334   0.638   6.322  0.00  0.00    +0.000 A 
ATOM     14  C   UNL     1       8.097  -0.353   5.707  0.00  0.00    +0.000 A 
ATOM     15  C   UNL     1       8.424  -0.247   4.361  0.00  0.00    +0.000 A 
ATOM     16  C   UNL     1       7.981   0.851   3.620  0.00  0.00    +0.000 A 
ENDBRANCH   9  11
ENDBRANCH   4   9
BRANCH   5  17
ATOM     17  O   UNL     1       5.559   2.624   0.875  0.00  0.00    +0.000 OA
ATOM     18  H   UNL     1       6.084   1.788   0.939  0.00  0.00    +0.000 HD
ENDBRANCH   5  17
TORSDOF 4
ENDMDL
MODEL 6
REMARK VINA RESULT:      -3.2      1.774      2.754
REMARK  Name = ox2_shuffle_ligand
REMARK  5 active torsions:
REMARK  status: ('A' for Active; 'I' for Inactive)
REMARK    1  A    between atoms: C_1  and  O_2
REMARK    2  A    between atoms: O_2  and  C_3
REMARK    3  A    between atoms: C_6  and  C_7
REMARK    4  A    between atoms: C_7  and  C_9
REMARK    5  A    between atoms: C_15  and  O_16
REMARK                            x       y       z     vdW  Elec       q    Type
REMARK                         _______ _______ _______ _____ _____    ______ ____
ROOT
ATOM      1  C   UNL     1       2.097   3.756   2.829  0.00  0.00    +0.000 A 
ATOM      2  C   UNL     1       2.990   3.108   1.990  0.00  0.00    +0.000 A 
ATOM      3  C   UNL     1       4.329   3.038   2.312  0.00  0.00    +0.000 A 
ATOM      4  C   UNL     1       4.800   3.623   3.480  0.00  0.00    +0.000 A 
ATOM      5  C   UNL     1       3.902   4.288   4.328  0.00  0.00    +0.000 A 
ATOM      6  C   UNL     1       2.555   4.344   3.993  0.00  0.00    +0.000 A 
ENDROOT
BRANCH   1   8
ATOM      7  C   UNL     1      -0.083   4.764   2.964  0.00  0.00    +0.000 C 
ATOM      8  O   UNL     1       0.779   3.782   2.449  0.00  0.00    +0.000 OA
ENDBRANCH   1   8
BRANCH   4   9
ATOM      9  C   UNL     1       6.261   3.550   3.834  0.00  0.00    +0.000 C 
ATOM     10  O   UNL     1       6.949   4.542   3.742  0.00  0.00    +0.000 OA
BRANCH   9  11
ATOM     11  C   UNL     1       6.859   2.271   4.273  0.00  0.00    +0.000 A 
ATOM     12  C   UNL     1       6.651   1.800   5.564  0.00  0.00    +0.000 A 
ATOM     13  C   UNL     1       7.230   0.606   5.964  0.00  0.00    +0.000 A 
ATOM     14  C   UNL     1       8.010  -0.126   5.070  0.00  0.00    +0.000 A 
ATOM     15  C   UNL     1       8.231   0.353   3.784  0.00  0.00    +0.000 A 
ATOM     16  C   UNL     1       7.664   1.564   3.384  0.00  0.00    +0.000 A 
ENDBRANCH   9  11
ENDBRANCH   4   9
BRANCH   5  17
ATOM     17  O   UNL     1       4.357   4.867   5.474  0.00  0.00    +0.000 OA
ATOM     18  H   UNL     1       3.836   4.783   6.311  0.00  0.00    +0.000 HD
ENDBRANCH   5  17
TORSDOF 4
ENDMDL
MODEL 7
REMARK VINA RESULT:      -3.1      1.858      2.733
REMARK  Name = ox2_shuffle_ligand
REMARK  5 active torsions:
REMARK  status: ('A' for Active; 'I' for Inactive)
REMARK    1  A    between atoms: C_1  and  O_2
REMARK    2  A    between atoms: O_2  and  C_3
REMARK    3  A    between atoms: C_6  and  C_7
REMARK    4  A    between atoms: C_7  and  C_9
REMARK    5  A    between atoms: C_15  and  O_16
REMARK                            x       y       z     vdW  Elec       q    Type
REMARK                         _______ _______ _______ _____ _____    ______ ____
ROOT
ATOM      1  C   UNL     1       3.640   2.591   0.272  0.00  0.00    +0.000 A 
ATOM      2  C   UNL     1       3.239   2.890   1.565  0.00  0.00    +0.000 A 
ATOM      3  C   UNL     1       4.172   3.094   2.558  0.00  0.00    +0.000 A 
ATOM      4  C   UNL     1       5.528   2.995   2.276  0.00  0.00    +0.000 A 
ATOM      5  C   UNL     1       5.940   2.684   0.972  0.00  0.00    +0.000 A 
ATOM      6  C   UNL     1       4.987   2.488  -0.020  0.00  0.00    +0.000 A 
ENDROOT
BRANCH   1   8
ATOM      7  C   UNL     1       2.751   1.346  -1.586  0.00  0.00    +0.000 C 
ATOM      8  O   UNL     1       2.658   2.406  -0.669  0.00  0.00    +0.000 OA
ENDBRANCH   1   8
BRANCH   4   9
ATOM      9  C   UNL     1       6.551   3.216   3.359  0.00  0.00    +0.000 C 
ATOM     10  O   UNL     1       7.109   4.286   3.445  0.00  0.00    +0.000 OA
BRANCH   9  11
ATOM     11  C   UNL     1       6.887   2.126   4.300  0.00  0.00    +0.000 A 
ATOM     12  C   UNL     1       7.777   1.125   3.933  0.00  0.00    +0.000 A 
ATOM     13  C   UNL     1       8.071   0.102   4.822  0.00  0.00    +0.000 A 
ATOM     14  C   UNL     1       7.482   0.085   6.085  0.00  0.00    +0.000 A 
ATOM     15  C   UNL     1       6.580   1.078   6.447  0.00  0.00    +0.000 A 
ATOM     16  C   UNL     1       6.268   2.099   5.547  0.00  0.00    +0.000 A 
ENDBRANCH   9  11
ENDBRANCH   4   9
BRANCH   5  17
ATOM     17  O   UNL     1       7.268   2.581   0.688  0.00  0.00    +0.000 OA
ATOM     18  H   UNL     1       7.562   2.172  -0.163  0.00  0.00    +0.000 HD
ENDBRANCH   5  17
TORSDOF 4
ENDMDL
MODEL 8
REMARK VINA RESULT:      -3.0      2.670      3.785
REMARK  Name = ox2_shuffle_ligand
REMARK  5 active torsions:
REMARK  status: ('A' for Active; 'I' for Inactive)
REMARK    1  A    between atoms: C_1  and  O_2
REMARK    2  A    between atoms: O_2  and  C_3
REMARK    3  A    between atoms: C_6  and  C_7
REMARK    4  A    between atoms: C_7  and  C_9
REMARK    5  A    between atoms: C_15  and  O_16
REMARK                            x       y       z     vdW  Elec       q    Type
REMARK                         _______ _______ _______ _____ _____    ______ ____
ROOT
ATOM      1  C   UNL     1       4.604   6.583   4.988  0.00  0.00    +0.000 A 
ATOM      2  C   UNL     1       5.828   6.243   5.542  0.00  0.00    +0.000 A 
ATOM      3  C   UNL     1       6.069   4.956   5.973  0.00  0.00    +0.000 A 
ATOM      4  C   UNL     1       5.082   3.985   5.864  0.00  0.00    +0.000 A 
ATOM      5  C   UNL     1       3.837   4.326   5.314  0.00  0.00    +0.000 A 
ATOM      6  C   UNL     1       3.613   5.626   4.877  0.00  0.00    +0.000 A 
ENDROOT
BRANCH   1   8
ATOM      7  C   UNL     1       5.464   8.537   3.879  0.00  0.00    +0.000 C 
ATOM      8  O   UNL     1       4.436   7.881   4.575  0.00  0.00    +0.000 OA
ENDBRANCH   1   8
BRANCH   4   9
ATOM      9  C   UNL     1       5.339   2.579   6.336  0.00  0.00    +0.000 C 
ATOM     10  O   UNL     1       4.731   2.147   7.288  0.00  0.00    +0.000 OA
BRANCH   9  11
ATOM     11  C   UNL     1       6.344   1.736   5.653  0.00  0.00    +0.000 A 
ATOM     12  C   UNL     1       6.605   1.905   4.298  0.00  0.00    +0.000 A 
ATOM     13  C   UNL     1       7.540   1.097   3.670  0.00  0.00    +0.000 A 
ATOM     14  C   UNL     1       8.225   0.125   4.398  0.00  0.00    +0.000 A 
ATOM     15  C   UNL     1       7.953  -0.054   5.749  0.00  0.00    +0.000 A 
ATOM     16  C   UNL     1       6.999   0.746   6.380  0.00  0.00    +0.000 A 
ENDBRANCH   9  11
ENDBRANCH   4   9
BRANCH   5  17
ATOM     17  O   UNL     1       2.863   3.381   5.207  0.00  0.00    +0.000 OA
ATOM     18  H   UNL     1       2.938   2.532   5.711  0.00  0.00    +0.000 HD
ENDBRANCH   5  17
TORSDOF 4
ENDMDL
MODEL 9
REMARK VINA RESULT:      -3.0      2.156      3.530
REMARK  Name = ox2_shuffle_ligand
REMARK  5 active torsions:
REMARK  status: ('A' for Active; 'I' for Inactive)
REMARK    1  A    between atoms: C_1  and  O_2
REMARK    2  A    between atoms: O_2  and  C_3
REMARK    3  A    between atoms: C_6  and  C_7
REMARK    4  A    between atoms: C_7  and  C_9
REMARK    5  A    between atoms: C_15  and  O_16
REMARK                            x       y       z     vdW  Elec       q    Type
REMARK                         _______ _______ _______ _____ _____    ______ ____
ROOT
ATOM      1  C   UNL     1       2.763   5.784   4.057  0.00  0.00    +0.000 A 
ATOM      2  C   UNL     1       4.088   6.019   4.389  0.00  0.00    +0.000 A 
ATOM      3  C   UNL     1       5.074   5.136   4.005  0.00  0.00    +0.000 A 
ATOM      4  C   UNL     1       4.749   3.993   3.285  0.00  0.00    +0.000 A 
ATOM      5  C   UNL     1       3.409   3.745   2.955  0.00  0.00    +0.000 A 
ATOM      6  C   UNL     1       2.428   4.649   3.344  0.00  0.00    +0.000 A 
ENDROOT
BRANCH   1   8
ATOM      7  C   UNL     1       0.801   7.099   3.601  0.00  0.00    +0.000 C 
ATOM      8  O   UNL     1       1.835   6.708   4.467  0.00  0.00    +0.000 OA
ENDBRANCH   1   8
BRANCH   4   9
ATOM      9  C   UNL     1       5.823   3.025   2.865  0.00  0.00    +0.000 C 
ATOM     10  O   UNL     1       6.170   2.983   1.707  0.00  0.00    +0.000 OA
BRANCH   9  11
ATOM     11  C   UNL     1       6.436   2.116   3.857  0.00  0.00    +0.000 A 
ATOM     12  C   UNL     1       6.034   2.147   5.187  0.00  0.00    +0.000 A 
ATOM     13  C   UNL     1       6.629   1.297   6.107  0.00  0.00    +0.000 A 
ATOM     14  C   UNL     1       7.620   0.408   5.697  0.00  0.00    +0.000 A 
ATOM     15  C   UNL     1       8.033   0.387   4.370  0.00  0.00    +0.000 A 
ATOM     16  C   UNL     1       7.449   1.254   3.445  0.00  0.00    +0.000 A 
ENDBRANCH   9  11
ENDBRANCH   4   9
BRANCH   5  17
ATOM     17  O   UNL     1       3.082   2.625   2.253  0.00  0.00    +0.000 OA
ATOM     18  H   UNL     1       2.157   2.272   2.286  0.00  0.00    +0.000 HD
ENDBRANCH   5  17
TORSDOF 4
ENDMDL
