REMARK  Name = bgox31_5_ligand
REMARK  5 active torsions:
REMARK  status: ('A' for Active; 'I' for Inactive)
REMARK    1  A    between atoms: C_1  and  O_2
REMARK    2  A    between atoms: O_2  and  C_3
REMARK    3  A    between atoms: C_6  and  C_7
REMARK    4  A    between atoms: C_7  and  C_9
REMARK    5  A    between atoms: C_15  and  O_16
REMARK                            x       y       z     vdW  Elec       q    Type
REMARK                         _______ _______ _______ _____ _____    ______ ____
ROOT
ATOM      1  C   UNL     1      -2.200  -9.783   3.335  0.00  0.00    +0.000 A 
ATOM      2  C   UNL     1      -1.498 -10.282   2.283  0.00  0.00    +0.000 A 
ATOM      3  C   UNL     1      -1.149  -9.425   1.217  0.00  0.00    +0.000 A 
ATOM      4  C   UNL     1      -1.504  -8.092   1.183  0.00  0.00    +0.000 A 
ATOM      5  C   UNL     1      -2.234  -7.586   2.255  0.00  0.00    +0.000 A 
ATOM      6  C   UNL     1      -2.593  -8.436   3.337  0.00  0.00    +0.000 A 
ENDROOT
BRANCH   1   8
ATOM      7  C   UNL     1      -3.488 -10.540   5.360  0.00  0.00    +0.000 C 
ATOM      8  O   UNL     1      -2.485 -10.782   4.332  0.00  0.00    +0.000 OA
ENDBRANCH   1   8
BRANCH   4   9
ATOM      9  C   UNL     1      -1.131  -7.280   0.050  0.00  0.00    +0.000 C 
ATOM     10  O   UNL     1      -1.765  -6.240  -0.169  0.00  0.00    +0.000 OA
BRANCH   9  11
ATOM     11  C   UNL     1      -0.072  -7.746  -0.899  0.00  0.00    +0.000 A 
ATOM     12  C   UNL     1      -0.256  -7.900  -2.263  0.00  0.00    +0.000 A 
ATOM     13  C   UNL     1       0.795  -8.352  -3.107  0.00  0.00    +0.000 A 
ATOM     14  C   UNL     1       2.035  -8.642  -2.623  0.00  0.00    +0.000 A 
ATOM     15  C   UNL     1       2.266  -8.479  -1.278  0.00  0.00    +0.000 A 
ATOM     16  C   UNL     1       1.205  -8.063  -0.440  0.00  0.00    +0.000 A 
ENDBRANCH   9  11
ENDBRANCH   4   9
BRANCH   5  17
ATOM     17  O   UNL     1      -2.590  -6.278   2.263  0.00  0.00    +0.000 OA
ATOM     18  H   UNL     1      -3.109  -5.910   3.021  0.00  0.00    +0.000 HD
ENDBRANCH   5  17
TORSDOF 4
