MODEL 1
REMARK VINA RESULT:      -5.5      0.000      0.000
REMARK  Name = bgox31_5_ligand
REMARK  5 active torsions:
REMARK  status: ('A' for Active; 'I' for Inactive)
REMARK    1  A    between atoms: C_1  and  O_2
REMARK    2  A    between atoms: O_2  and  C_3
REMARK    3  A    between atoms: C_6  and  C_7
REMARK    4  A    between atoms: C_7  and  C_9
REMARK    5  A    between atoms: C_15  and  O_16
REMARK                            x       y       z     vdW  Elec       q    Type
REMARK                         _______ _______ _______ _____ _____    ______ ____
ROOT
ATOM      1  C   UNL     1      -6.660  -2.959   5.885  0.00  0.00    +0.000 A 
ATOM      2  C   UNL     1      -6.998  -3.842   4.908  0.00  0.00    +0.000 A 
ATOM      3  C   UNL     1      -5.998  -4.323   4.035  0.00  0.00    +0.000 A 
ATOM      4  C   UNL     1      -4.680  -3.922   4.116  0.00  0.00    +0.000 A 
ATOM      5  C   UNL     1      -4.338  -3.008   5.109  0.00  0.00    +0.000 A 
ATOM      6  C   UNL     1      -5.334  -2.515   5.997  0.00  0.00    +0.000 A 
ENDROOT
BRANCH   1   8
ATOM      7  C   UNL     1      -8.691  -1.511   6.221  0.00  0.00    +0.000 C 
ATOM      8  O   UNL     1      -7.790  -2.559   6.682  0.00  0.00    +0.000 OA
ENDBRANCH   1   8
BRANCH   4   9
ATOM      9  C   UNL     1      -3.715  -4.439   3.176  0.00  0.00    +0.000 C 
ATOM     10  O   UNL     1      -2.856  -5.232   3.583  0.00  0.00    +0.000 OA
BRANCH   9  11
ATOM     11  C   UNL     1      -3.691  -3.940   1.766  0.00  0.00    +0.000 A 
ATOM     12  C   UNL     1      -4.265  -2.752   1.346  0.00  0.00    +0.000 A 
ATOM     13  C   UNL     1      -4.208  -2.341  -0.014  0.00  0.00    +0.000 A 
ATOM     14  C   UNL     1      -3.577  -3.082  -0.966  0.00  0.00    +0.000 A 
ATOM     15  C   UNL     1      -2.973  -4.257  -0.586  0.00  0.00    +0.000 A 
ATOM     16  C   UNL     1      -3.065  -4.676   0.762  0.00  0.00    +0.000 A 
ENDBRANCH   9  11
ENDBRANCH   4   9
BRANCH   5  17
ATOM     17  O   UNL     1      -3.051  -2.601   5.228  0.00  0.00    +0.000 OA
ATOM     18  H   UNL     1      -2.550  -2.779   6.063  0.00  0.00    +0.000 HD
ENDBRANCH   5  17
TORSDOF 4
ENDMDL
MODEL 2
REMARK VINA RESULT:      -4.9      2.259      5.540
REMARK  Name = bgox31_5_ligand
REMARK  5 active torsions:
REMARK  status: ('A' for Active; 'I' for Inactive)
REMARK    1  A    between atoms: C_1  and  O_2
REMARK    2  A    between atoms: O_2  and  C_3
REMARK    3  A    between atoms: C_6  and  C_7
REMARK    4  A    between atoms: C_7  and  C_9
REMARK    5  A    between atoms: C_15  and  O_16
REMARK                            x       y       z     vdW  Elec       q    Type
REMARK                         _______ _______ _______ _____ _____    ______ ____
ROOT
ATOM      1  C   UNL     1      -5.003  -2.225  -0.761  0.00  0.00    +0.000 A 
ATOM      2  C   UNL     1      -5.621  -2.022   0.432  0.00  0.00    +0.000 A 
ATOM      3  C   UNL     1      -5.143  -2.692   1.580  0.00  0.00    +0.000 A 
ATOM      4  C   UNL     1      -4.076  -3.566   1.545  0.00  0.00    +0.000 A 
ATOM      5  C   UNL     1      -3.453  -3.782   0.319  0.00  0.00    +0.000 A 
ATOM      6  C   UNL     1      -3.921  -3.114  -0.846  0.00  0.00    +0.000 A 
ENDROOT
BRANCH   1   8
ATOM      7  C   UNL     1      -6.832  -0.715  -1.605  0.00  0.00    +0.000 C 
ATOM      8  O   UNL     1      -5.612  -1.479  -1.832  0.00  0.00    +0.000 OA
ENDBRANCH   1   8
BRANCH   4   9
ATOM      9  C   UNL     1      -3.656  -4.232   2.753  0.00  0.00    +0.000 C 
ATOM     10  O   UNL     1      -2.694  -5.009   2.699  0.00  0.00    +0.000 OA
BRANCH   9  11
ATOM     11  C   UNL     1      -4.437  -4.068   4.019  0.00  0.00    +0.000 A 
ATOM     12  C   UNL     1      -4.267  -3.025   4.914  0.00  0.00    +0.000 A 
ATOM     13  C   UNL     1      -5.042  -2.932   6.102  0.00  0.00    +0.000 A 
ATOM     14  C   UNL     1      -5.998  -3.852   6.413  0.00  0.00    +0.000 A 
ATOM     15  C   UNL     1      -6.215  -4.890   5.538  0.00  0.00    +0.000 A 
ATOM     16  C   UNL     1      -5.415  -4.994   4.377  0.00  0.00    +0.000 A 
ENDBRANCH   9  11
ENDBRANCH   4   9
BRANCH   5  17
ATOM     17  O   UNL     1      -2.392  -4.624   0.247  0.00  0.00    +0.000 OA
ATOM     18  H   UNL     1      -2.523  -5.597   0.372  0.00  0.00    +0.000 HD
ENDBRANCH   5  17
TORSDOF 4
ENDMDL
MODEL 3
REMARK VINA RESULT:      -4.8      2.450      3.906
REMARK  Name = bgox31_5_ligand
REMARK  5 active torsions:
REMARK  status: ('A' for Active; 'I' for Inactive)
REMARK    1  A    between atoms: C_1  and  O_2
REMARK    2  A    between atoms: O_2  and  C_3
REMARK    3  A    between atoms: C_6  and  C_7
REMARK    4  A    between atoms: C_7  and  C_9
REMARK    5  A    between atoms: C_15  and  O_16
REMARK                            x       y       z     vdW  Elec       q    Type
REMARK                         _______ _______ _______ _____ _____    ______ ____
ROOT
ATOM      1  C   UNL     1      -4.289  -3.871   3.764  0.00  0.00    +0.000 A 
ATOM      2  C   UNL     1      -4.993  -2.896   3.130  0.00  0.00    +0.000 A 
ATOM      3  C   UNL     1      -4.810  -2.702   1.744  0.00  0.00    +0.000 A 
ATOM      4  C   UNL     1      -3.928  -3.453   0.995  0.00  0.00    +0.000 A 
ATOM      5  C   UNL     1      -3.199  -4.443   1.648  0.00  0.00    +0.000 A 
ATOM      6  C   UNL     1      -3.372  -4.651   3.044  0.00  0.00    +0.000 A 
ENDROOT
BRANCH   1   8
ATOM      7  C   UNL     1      -4.955  -2.735   5.909  0.00  0.00    +0.000 C 
ATOM      8  O   UNL     1      -4.581  -3.935   5.173  0.00  0.00    +0.000 OA
ENDBRANCH   1   8
BRANCH   4   9
ATOM      9  C   UNL     1      -3.777  -3.185  -0.415  0.00  0.00    +0.000 C 
ATOM     10  O   UNL     1      -2.737  -2.639  -0.807  0.00  0.00    +0.000 OA
BRANCH   9  11
ATOM     11  C   UNL     1      -4.901  -3.462  -1.363  0.00  0.00    +0.000 A 
ATOM     12  C   UNL     1      -5.010  -2.913  -2.630  0.00  0.00    +0.000 A 
ATOM     13  C   UNL     1      -6.109  -3.218  -3.478  0.00  0.00    +0.000 A 
ATOM     14  C   UNL     1      -7.100  -4.072  -3.097  0.00  0.00    +0.000 A 
ATOM     15  C   UNL     1      -7.016  -4.657  -1.856  0.00  0.00    +0.000 A 
ATOM     16  C   UNL     1      -5.938  -4.321  -1.005  0.00  0.00    +0.000 A 
ENDBRANCH   9  11
ENDBRANCH   4   9
BRANCH   5  17
ATOM     17  O   UNL     1      -2.332  -5.210   0.942  0.00  0.00    +0.000 OA
ATOM     18  H   UNL     1      -2.567  -5.512   0.030  0.00  0.00    +0.000 HD
ENDBRANCH   5  17
TORSDOF 4
ENDMDL
MODEL 4
REMARK VINA RESULT:      -4.6      1.972      6.012
REMARK  Name = bgox31_5_ligand
REMARK  5 active torsions:
REMARK  status: ('A' for Active; 'I' for Inactive)
REMARK    1  A    between atoms: C_1  and  O_2
REMARK    2  A    between atoms: O_2  and  C_3
REMARK    3  A    between atoms: C_6  and  C_7
REMARK    4  A    between atoms: C_7  and  C_9
REMARK    5  A    between atoms: C_15  and  O_16
REMARK                            x       y       z     vdW  Elec       q    Type
REMARK                         _______ _______ _______ _____ _____    ______ ____
ROOT
ATOM      1  C   UNL     1      -3.496  -4.311   1.117  0.00  0.00    +0.000 A 
ATOM      2  C   UNL     1      -3.042  -5.057   2.159  0.00  0.00    +0.000 A 
ATOM      3  C   UNL     1      -3.403  -4.696   3.475  0.00  0.00    +0.000 A 
ATOM      4  C   UNL     1      -4.191  -3.599   3.760  0.00  0.00    +0.000 A 
ATOM      5  C   UNL     1      -4.644  -2.829   2.692  0.00  0.00    +0.000 A 
ATOM      6  C   UNL     1      -4.290  -3.180   1.360  0.00  0.00    +0.000 A 
ENDROOT
BRANCH   1   8
ATOM      7  C   UNL     1      -2.816  -6.226  -0.367  0.00  0.00    +0.000 C 
ATOM      8  O   UNL     1      -3.034  -4.801  -0.156  0.00  0.00    +0.000 OA
ENDBRANCH   1   8
BRANCH   4   9
ATOM      9  C   UNL     1      -4.503  -3.278   5.132  0.00  0.00    +0.000 C 
ATOM     10  O   UNL     1      -3.771  -2.483   5.736  0.00  0.00    +0.000 OA
BRANCH   9  11
ATOM     11  C   UNL     1      -5.623  -3.976   5.837  0.00  0.00    +0.000 A 
ATOM     12  C   UNL     1      -5.867  -3.889   7.197  0.00  0.00    +0.000 A 
ATOM     13  C   UNL     1      -6.948  -4.584   7.803  0.00  0.00    +0.000 A 
ATOM     14  C   UNL     1      -7.805  -5.357   7.080  0.00  0.00    +0.000 A 
ATOM     15  C   UNL     1      -7.613  -5.451   5.722  0.00  0.00    +0.000 A 
ATOM     16  C   UNL     1      -6.513  -4.785   5.132  0.00  0.00    +0.000 A 
ENDBRANCH   9  11
ENDBRANCH   4   9
BRANCH   5  17
ATOM     17  O   UNL     1      -5.431  -1.752   2.932  0.00  0.00    +0.000 OA
ATOM     18  H   UNL     1      -5.034  -0.915   3.279  0.00  0.00    +0.000 HD
ENDBRANCH   5  17
TORSDOF 4
ENDMDL
MODEL 5
REMARK VINA RESULT:      -4.6      1.616      5.876
REMARK  Name = bgox31_5_ligand
REMARK  5 active torsions:
REMARK  status: ('A' for Active; 'I' for Inactive)
REMARK    1  A    between atoms: C_1  and  O_2
REMARK    2  A    between atoms: O_2  and  C_3
REMARK    3  A    between atoms: C_6  and  C_7
REMARK    4  A    between atoms: C_7  and  C_9
REMARK    5  A    between atoms: C_15  and  O_16
REMARK                            x       y       z     vdW  Elec       q    Type
REMARK                         _______ _______ _______ _____ _____    ______ ____
ROOT
ATOM      1  C   UNL     1      -4.357  -3.695   1.070  0.00  0.00    +0.000 A 
ATOM      2  C   UNL     1      -5.204  -2.717   1.487  0.00  0.00    +0.000 A 
ATOM      3  C   UNL     1      -5.314  -2.441   2.867  0.00  0.00    +0.000 A 
ATOM      4  C   UNL     1      -4.607  -3.136   3.827  0.00  0.00    +0.000 A 
ATOM      5  C   UNL     1      -3.750  -4.146   3.399  0.00  0.00    +0.000 A 
ATOM      6  C   UNL     1      -3.627  -4.436   2.012  0.00  0.00    +0.000 A 
ENDROOT
BRANCH   1   8
ATOM      7  C   UNL     1      -3.433  -3.119  -1.199  0.00  0.00    +0.000 C 
ATOM      8  O   UNL     1      -4.366  -3.860  -0.360  0.00  0.00    +0.000 OA
ENDBRANCH   1   8
BRANCH   4   9
ATOM      9  C   UNL     1      -4.786  -2.814   5.222  0.00  0.00    +0.000 C 
ATOM     10  O   UNL     1      -3.815  -2.393   5.863  0.00  0.00    +0.000 OA
BRANCH   9  11
ATOM     11  C   UNL     1      -6.091  -3.089   5.900  0.00  0.00    +0.000 A 
ATOM     12  C   UNL     1      -7.145  -2.193   5.963  0.00  0.00    +0.000 A 
ATOM     13  C   UNL     1      -8.358  -2.519   6.629  0.00  0.00    +0.000 A 
ATOM     14  C   UNL     1      -8.551  -3.729   7.225  0.00  0.00    +0.000 A 
ATOM     15  C   UNL     1      -7.538  -4.656   7.165  0.00  0.00    +0.000 A 
ATOM     16  C   UNL     1      -6.322  -4.311   6.531  0.00  0.00    +0.000 A 
ENDBRANCH   9  11
ENDBRANCH   4   9
BRANCH   5  17
ATOM     17  O   UNL     1      -3.030  -4.843   4.312  0.00  0.00    +0.000 OA
ATOM     18  H   UNL     1      -2.652  -5.727   4.076  0.00  0.00    +0.000 HD
ENDBRANCH   5  17
TORSDOF 4
ENDMDL
MODEL 6
REMARK VINA RESULT:      -4.6      1.900      5.890
REMARK  Name = bgox31_5_ligand
REMARK  5 active torsions:
REMARK  status: ('A' for Active; 'I' for Inactive)
REMARK    1  A    between atoms: C_1  and  O_2
REMARK    2  A    between atoms: O_2  and  C_3
REMARK    3  A    between atoms: C_6  and  C_7
REMARK    4  A    between atoms: C_7  and  C_9
REMARK    5  A    between atoms: C_15  and  O_16
REMARK                            x       y       z     vdW  Elec       q    Type
REMARK                         _______ _______ _______ _____ _____    ______ ____
ROOT
ATOM      1  C   UNL     1      -3.863  -5.541   1.943  0.00  0.00    +0.000 A 
ATOM      2  C   UNL     1      -3.741  -5.972   3.227  0.00  0.00    +0.000 A 
ATOM      3  C   UNL     1      -4.002  -5.073   4.284  0.00  0.00    +0.000 A 
ATOM      4  C   UNL     1      -4.366  -3.759   4.074  0.00  0.00    +0.000 A 
ATOM      5  C   UNL     1      -4.478  -3.317   2.759  0.00  0.00    +0.000 A 
ATOM      6  C   UNL     1      -4.218  -4.209   1.683  0.00  0.00    +0.000 A 
ENDROOT
BRANCH   1   8
ATOM      7  C   UNL     1      -3.260  -6.230  -0.402  0.00  0.00    +0.000 C 
ATOM      8  O   UNL     1      -3.554  -6.570   0.984  0.00  0.00    +0.000 OA
ENDBRANCH   1   8
BRANCH   4   9
ATOM      9  C   UNL     1      -4.597  -2.891   5.204  0.00  0.00    +0.000 C 
ATOM     10  O   UNL     1      -3.621  -2.401   5.785  0.00  0.00    +0.000 OA
BRANCH   9  11
ATOM     11  C   UNL     1      -5.984  -2.679   5.723  0.00  0.00    +0.000 A 
ATOM     12  C   UNL     1      -6.765  -1.570   5.442  0.00  0.00    +0.000 A 
ATOM     13  C   UNL     1      -8.076  -1.431   5.974  0.00  0.00    +0.000 A 
ATOM     14  C   UNL     1      -8.635  -2.383   6.773  0.00  0.00    +0.000 A 
ATOM     15  C   UNL     1      -7.902  -3.510   7.057  0.00  0.00    +0.000 A 
ATOM     16  C   UNL     1      -6.585  -3.624   6.552  0.00  0.00    +0.000 A 
ENDBRANCH   9  11
ENDBRANCH   4   9
BRANCH   5  17
ATOM     17  O   UNL     1      -4.845  -2.035   2.514  0.00  0.00    +0.000 OA
ATOM     18  H   UNL     1      -5.055  -1.427   3.266  0.00  0.00    +0.000 HD
ENDBRANCH   5  17
TORSDOF 4
ENDMDL
MODEL 7
REMARK VINA RESULT:      -4.6      3.003      5.954
REMARK  Name = bgox31_5_ligand
REMARK  5 active torsions:
REMARK  status: ('A' for Active; 'I' for Inactive)
REMARK    1  A    between atoms: C_1  and  O_2
REMARK    2  A    between atoms: O_2  and  C_3
REMARK    3  A    between atoms: C_6  and  C_7
REMARK    4  A    between atoms: C_7  and  C_9
REMARK    5  A    between atoms: C_15  and  O_16
REMARK                            x       y       z     vdW  Elec       q    Type
REMARK                         _______ _______ _______ _____ _____    ______ ____
ROOT
ATOM      1  C   UNL     1      -5.678  -3.810  -2.107  0.00  0.00    +0.000 A 
ATOM      2  C   UNL     1      -6.185  -4.628  -1.147  0.00  0.00    +0.000 A 
ATOM      3  C   UNL     1      -5.557  -4.682   0.116  0.00  0.00    +0.000 A 
ATOM      4  C   UNL     1      -4.430  -3.947   0.422  0.00  0.00    +0.000 A 
ATOM      5  C   UNL     1      -3.905  -3.120  -0.566  0.00  0.00    +0.000 A 
ATOM      6  C   UNL     1      -4.526  -3.053  -1.844  0.00  0.00    +0.000 A 
ENDROOT
BRANCH   1   8
ATOM      7  C   UNL     1      -7.698  -4.576  -3.398  0.00  0.00    +0.000 C 
ATOM      8  O   UNL     1      -6.423  -3.875  -3.338  0.00  0.00    +0.000 OA
ENDBRANCH   1   8
BRANCH   4   9
ATOM      9  C   UNL     1      -3.829  -4.068   1.728  0.00  0.00    +0.000 C 
ATOM     10  O   UNL     1      -2.862  -4.828   1.868  0.00  0.00    +0.000 OA
BRANCH   9  11
ATOM     11  C   UNL     1      -4.434  -3.373   2.908  0.00  0.00    +0.000 A 
ATOM     12  C   UNL     1      -4.093  -3.628   4.226  0.00  0.00    +0.000 A 
ATOM     13  C   UNL     1      -4.713  -2.932   5.299  0.00  0.00    +0.000 A 
ATOM     14  C   UNL     1      -5.657  -1.973   5.088  0.00  0.00    +0.000 A 
ATOM     15  C   UNL     1      -6.006  -1.673   3.793  0.00  0.00    +0.000 A 
ATOM     16  C   UNL     1      -5.411  -2.395   2.732  0.00  0.00    +0.000 A 
ENDBRANCH   9  11
ENDBRANCH   4   9
BRANCH   5  17
ATOM     17  O   UNL     1      -2.806  -2.373  -0.298  0.00  0.00    +0.000 OA
ATOM     18  H   UNL     1      -2.875  -1.584   0.295  0.00  0.00    +0.000 HD
ENDBRANCH   5  17
TORSDOF 4
ENDMDL
MODEL 8
REMARK VINA RESULT:      -4.6     11.057     12.206
REMARK  Name = bgox31_5_ligand
REMARK  5 active torsions:
REMARK  status: ('A' for Active; 'I' for Inactive)
REMARK    1  A    between atoms: C_1  and  O_2
REMARK    2  A    between atoms: O_2  and  C_3
REMARK    3  A    between atoms: C_6  and  C_7
REMARK    4  A    between atoms: C_7  and  C_9
REMARK    5  A    between atoms: C_15  and  O_16
REMARK                            x       y       z     vdW  Elec       q    Type
REMARK                         _______ _______ _______ _____ _____    ______ ____
ROOT
ATOM      1  C   UNL     1       6.133  -3.311   8.496  0.00  0.00    +0.000 A 
ATOM      2  C   UNL     1       5.948  -2.930   7.204  0.00  0.00    +0.000 A 
ATOM      3  C   UNL     1       5.492  -1.624   6.927  0.00  0.00    +0.000 A 
ATOM      4  C   UNL     1       5.205  -0.707   7.917  0.00  0.00    +0.000 A 
ATOM      5  C   UNL     1       5.382  -1.102   9.240  0.00  0.00    +0.000 A 
ATOM      6  C   UNL     1       5.842  -2.415   9.536  0.00  0.00    +0.000 A 
ENDROOT
BRANCH   1   8
ATOM      7  C   UNL     1       7.396  -5.089   9.750  0.00  0.00    +0.000 C 
ATOM      8  O   UNL     1       6.591  -4.671   8.611  0.00  0.00    +0.000 OA
ENDBRANCH   1   8
BRANCH   4   9
ATOM      9  C   UNL     1       4.721   0.605   7.561  0.00  0.00    +0.000 C 
ATOM     10  O   UNL     1       3.816   1.108   8.239  0.00  0.00    +0.000 OA
BRANCH   9  11
ATOM     11  C   UNL     1       5.230   1.291   6.332  0.00  0.00    +0.000 A 
ATOM     12  C   UNL     1       6.549   1.662   6.132  0.00  0.00    +0.000 A 
ATOM     13  C   UNL     1       6.964   2.315   4.939  0.00  0.00    +0.000 A 
ATOM     14  C   UNL     1       6.092   2.597   3.931  0.00  0.00    +0.000 A 
ATOM     15  C   UNL     1       4.778   2.224   4.080  0.00  0.00    +0.000 A 
ATOM     16  C   UNL     1       4.367   1.606   5.284  0.00  0.00    +0.000 A 
ENDBRANCH   9  11
ENDBRANCH   4   9
BRANCH   5  17
ATOM     17  O   UNL     1       5.123  -0.225  10.240  0.00  0.00    +0.000 OA
ATOM     18  H   UNL     1       5.687   0.581  10.352  0.00  0.00    +0.000 HD
ENDBRANCH   5  17
TORSDOF 4
ENDMDL
MODEL 9
REMARK VINA RESULT:      -4.6      1.789      2.923
REMARK  Name = bgox31_5_ligand
REMARK  5 active torsions:
REMARK  status: ('A' for Active; 'I' for Inactive)
REMARK    1  A    between atoms: C_1  and  O_2
REMARK    2  A    between atoms: O_2  and  C_3
REMARK    3  A    between atoms: C_6  and  C_7
REMARK    4  A    between atoms: C_7  and  C_9
REMARK    5  A    between atoms: C_15  and  O_16
REMARK                            x       y       z     vdW  Elec       q    Type
REMARK                         _______ _______ _______ _____ _____    ______ ____
ROOT
ATOM      1  C   UNL     1      -8.493  -1.834   6.464  0.00  0.00    +0.000 A 
ATOM      2  C   UNL     1      -7.966  -3.053   6.751  0.00  0.00    +0.000 A 
ATOM      3  C   UNL     1      -6.646  -3.348   6.347  0.00  0.00    +0.000 A 
ATOM      4  C   UNL     1      -5.860  -2.452   5.651  0.00  0.00    +0.000 A 
ATOM      5  C   UNL     1      -6.407  -1.208   5.346  0.00  0.00    +0.000 A 
ATOM      6  C   UNL     1      -7.735  -0.896   5.747  0.00  0.00    +0.000 A 
ENDROOT
BRANCH   1   8
ATOM      7  C   UNL     1     -10.466  -0.378   7.032  0.00  0.00    +0.000 C 
ATOM      8  O   UNL     1      -9.847  -1.693   6.934  0.00  0.00    +0.000 OA
ENDBRANCH   1   8
BRANCH   4   9
ATOM      9  C   UNL     1      -4.526  -2.830   5.250  0.00  0.00    +0.000 C 
ATOM     10  O   UNL     1      -3.568  -2.410   5.911  0.00  0.00    +0.000 OA
BRANCH   9  11
ATOM     11  C   UNL     1      -4.307  -3.621   3.999  0.00  0.00    +0.000 A 
ATOM     12  C   UNL     1      -3.406  -4.666   3.882  0.00  0.00    +0.000 A 
ATOM     13  C   UNL     1      -3.245  -5.373   2.659  0.00  0.00    +0.000 A 
ATOM     14  C   UNL     1      -3.976  -5.071   1.549  0.00  0.00    +0.000 A 
ATOM     15  C   UNL     1      -4.900  -4.056   1.631  0.00  0.00    +0.000 A 
ATOM     16  C   UNL     1      -5.027  -3.334   2.841  0.00  0.00    +0.000 A 
ENDBRANCH   9  11
ENDBRANCH   4   9
BRANCH   5  17
ATOM     17  O   UNL     1      -5.660  -0.298   4.674  0.00  0.00    +0.000 OA
ATOM     18  H   UNL     1      -5.796   0.670   4.835  0.00  0.00    +0.000 HD
ENDBRANCH   5  17
TORSDOF 4
ENDMDL
