REMARK  Name = ox2_orig_f8_ligand
REMARK  5 active torsions:
REMARK  status: ('A' for Active; 'I' for Inactive)
REMARK    1  A    between atoms: C_1  and  O_2
REMARK    2  A    between atoms: O_2  and  C_3
REMARK    3  A    between atoms: C_6  and  C_7
REMARK    4  A    between atoms: C_7  and  C_9
REMARK    5  A    between atoms: C_15  and  O_16
REMARK                            x       y       z     vdW  Elec       q    Type
REMARK                         _______ _______ _______ _____ _____    ______ ____
ROOT
ATOM      1  C   UNL     1       6.646  -0.980  -0.935  0.00  0.00    +0.000 A 
ATOM      2  C   UNL     1       6.763  -1.762  -2.065  0.00  0.00    +0.000 A 
ATOM      3  C   UNL     1       6.156  -2.996  -2.124  0.00  0.00    +0.000 A 
ATOM      4  C   UNL     1       5.439  -3.461  -1.049  0.00  0.00    +0.000 A 
ATOM      5  C   UNL     1       5.301  -2.671   0.091  0.00  0.00    +0.000 A 
ATOM      6  C   UNL     1       5.910  -1.437   0.136  0.00  0.00    +0.000 A 
ENDROOT
BRANCH   1   8
ATOM      7  C   UNL     1       7.182   1.071   0.161  0.00  0.00    +0.000 C 
ATOM      8  O   UNL     1       7.276   0.225  -0.949  0.00  0.00    +0.000 OA
ENDBRANCH   1   8
BRANCH   4   9
ATOM      9  C   UNL     1       4.800  -4.778  -1.139  0.00  0.00    +0.000 C 
ATOM     10  O   UNL     1       3.755  -4.840  -0.773  0.00  0.00    +0.000 OA
BRANCH   9  11
ATOM     11  C   UNL     1       5.280  -5.980  -1.774  0.00  0.00    +0.000 A 
ATOM     12  C   UNL     1       6.608  -6.301  -1.728  0.00  0.00    +0.000 A 
ATOM     13  C   UNL     1       7.066  -7.455  -2.325  0.00  0.00    +0.000 A 
ATOM     14  C   UNL     1       6.195  -8.287  -2.988  0.00  0.00    +0.000 A 
ATOM     15  C   UNL     1       4.851  -7.977  -3.019  0.00  0.00    +0.000 A 
ATOM     16  C   UNL     1       4.382  -6.827  -2.402  0.00  0.00    +0.000 A 
ENDBRANCH   9  11
ENDBRANCH   4   9
BRANCH   5  17
ATOM     17  O   UNL     1       4.576  -3.114   1.130  0.00  0.00    +0.000 OA
ATOM     18  H   UNL     1       4.478  -2.553   1.940  0.00  0.00    +0.000 HD
ENDBRANCH   5  17
TORSDOF 4
