MODEL 1
REMARK VINA RESULT:      -3.3      0.000      0.000
REMARK  Name = ox2_orig_f8_ligand
REMARK  5 active torsions:
REMARK  status: ('A' for Active; 'I' for Inactive)
REMARK    1  A    between atoms: C_1  and  O_2
REMARK    2  A    between atoms: O_2  and  C_3
REMARK    3  A    between atoms: C_6  and  C_7
REMARK    4  A    between atoms: C_7  and  C_9
REMARK    5  A    between atoms: C_15  and  O_16
REMARK                            x       y       z     vdW  Elec       q    Type
REMARK                         _______ _______ _______ _____ _____    ______ ____
ROOT
ATOM      1  C   UNL     1      -0.350   0.171   7.106  0.00  0.00    +0.000 A 
ATOM      2  C   UNL     1       0.075  -0.988   7.720  0.00  0.00    +0.000 A 
ATOM      3  C   UNL     1       0.198  -2.154   6.999  0.00  0.00    +0.000 A 
ATOM      4  C   UNL     1      -0.116  -2.171   5.662  0.00  0.00    +0.000 A 
ATOM      5  C   UNL     1      -0.531  -1.001   5.029  0.00  0.00    +0.000 A 
ATOM      6  C   UNL     1      -0.646   0.160   5.761  0.00  0.00    +0.000 A 
ENDROOT
BRANCH   1   8
ATOM      7  C   UNL     1       0.181   1.315   9.132  0.00  0.00    +0.000 C 
ATOM      8  O   UNL     1      -0.450   1.282   7.884  0.00  0.00    +0.000 OA
ENDBRANCH   1   8
BRANCH   4   9
ATOM      9  C   UNL     1       0.026  -3.426   4.916  0.00  0.00    +0.000 C 
ATOM     10  O   UNL     1      -0.905  -3.843   4.481  0.00  0.00    +0.000 OA
BRANCH   9  11
ATOM     11  C   UNL     1       1.227  -4.126   4.535  0.00  0.00    +0.000 A 
ATOM     12  C   UNL     1       1.881  -3.795   3.381  0.00  0.00    +0.000 A 
ATOM     13  C   UNL     1       3.035  -4.456   3.021  0.00  0.00    +0.000 A 
ATOM     14  C   UNL     1       3.531  -5.467   3.810  0.00  0.00    +0.000 A 
ATOM     15  C   UNL     1       2.885  -5.790   4.985  0.00  0.00    +0.000 A 
ATOM     16  C   UNL     1       1.734  -5.114   5.362  0.00  0.00    +0.000 A 
ENDBRANCH   9  11
ENDBRANCH   4   9
BRANCH   5  17
ATOM     17  O   UNL     1      -0.810  -1.011   3.716  0.00  0.00    +0.000 OA
ATOM     18  H   UNL     1      -1.696  -1.322   3.401  0.00  0.00    +0.000 HD
ENDBRANCH   5  17
TORSDOF 4
ENDMDL
MODEL 2
REMARK VINA RESULT:      -3.0      4.043      7.400
REMARK  Name = ox2_orig_f8_ligand
REMARK  5 active torsions:
REMARK  status: ('A' for Active; 'I' for Inactive)
REMARK    1  A    between atoms: C_1  and  O_2
REMARK    2  A    between atoms: O_2  and  C_3
REMARK    3  A    between atoms: C_6  and  C_7
REMARK    4  A    between atoms: C_7  and  C_9
REMARK    5  A    between atoms: C_15  and  O_16
REMARK                            x       y       z     vdW  Elec       q    Type
REMARK                         _______ _______ _______ _____ _____    ______ ____
ROOT
ATOM      1  C   UNL     1      -3.409  -1.276   2.849  0.00  0.00    +0.000 A 
ATOM      2  C   UNL     1      -4.056  -0.204   3.427  0.00  0.00    +0.000 A 
ATOM      3  C   UNL     1      -3.385   0.634   4.288  0.00  0.00    +0.000 A 
ATOM      4  C   UNL     1      -2.066   0.397   4.588  0.00  0.00    +0.000 A 
ATOM      5  C   UNL     1      -1.398  -0.674   3.996  0.00  0.00    +0.000 A 
ATOM      6  C   UNL     1      -2.080  -1.502   3.133  0.00  0.00    +0.000 A 
ENDROOT
BRANCH   1   8
ATOM      7  C   UNL     1      -3.502  -2.740   0.967  0.00  0.00    +0.000 C 
ATOM      8  O   UNL     1      -4.138  -2.060   2.011  0.00  0.00    +0.000 OA
ENDBRANCH   1   8
BRANCH   4   9
ATOM      9  C   UNL     1      -1.373   1.306   5.507  0.00  0.00    +0.000 C 
ATOM     10  O   UNL     1      -0.686   0.832   6.238  0.00  0.00    +0.000 OA
BRANCH   9  11
ATOM     11  C   UNL     1      -1.337   2.747   5.506  0.00  0.00    +0.000 A 
ATOM     12  C   UNL     1      -1.586   3.444   6.655  0.00  0.00    +0.000 A 
ATOM     13  C   UNL     1      -1.541   4.821   6.657  0.00  0.00    +0.000 A 
ATOM     14  C   UNL     1      -1.263   5.509   5.500  0.00  0.00    +0.000 A 
ATOM     15  C   UNL     1      -0.992   4.809   4.343  0.00  0.00    +0.000 A 
ATOM     16  C   UNL     1      -1.015   3.422   4.340  0.00  0.00    +0.000 A 
ENDBRANCH   9  11
ENDBRANCH   4   9
BRANCH   5  17
ATOM     17  O   UNL     1      -0.101  -0.887   4.266  0.00  0.00    +0.000 OA
ATOM     18  H   UNL     1       0.248  -1.812   4.320  0.00  0.00    +0.000 HD
ENDBRANCH   5  17
TORSDOF 4
ENDMDL
MODEL 3
REMARK VINA RESULT:      -3.0      6.467      8.644
REMARK  Name = ox2_orig_f8_ligand
REMARK  5 active torsions:
REMARK  status: ('A' for Active; 'I' for Inactive)
REMARK    1  A    between atoms: C_1  and  O_2
REMARK    2  A    between atoms: O_2  and  C_3
REMARK    3  A    between atoms: C_6  and  C_7
REMARK    4  A    between atoms: C_7  and  C_9
REMARK    5  A    between atoms: C_15  and  O_16
REMARK                            x       y       z     vdW  Elec       q    Type
REMARK                         _______ _______ _______ _____ _____    ______ ____
ROOT
ATOM      1  C   UNL     1       6.507  -2.611   2.697  0.00  0.00    +0.000 A 
ATOM      2  C   UNL     1       7.428  -3.040   3.630  0.00  0.00    +0.000 A 
ATOM      3  C   UNL     1       7.899  -2.176   4.592  0.00  0.00    +0.000 A 
ATOM      4  C   UNL     1       7.462  -0.874   4.620  0.00  0.00    +0.000 A 
ATOM      5  C   UNL     1       6.519  -0.436   3.692  0.00  0.00    +0.000 A 
ATOM      6  C   UNL     1       6.053  -1.312   2.737  0.00  0.00    +0.000 A 
ENDROOT
BRANCH   1   8
ATOM      7  C   UNL     1       5.303  -4.605   2.177  0.00  0.00    +0.000 C 
ATOM      8  O   UNL     1       6.091  -3.521   1.776  0.00  0.00    +0.000 OA
ENDBRANCH   1   8
BRANCH   4   9
ATOM      9  C   UNL     1       7.978   0.025   5.657  0.00  0.00    +0.000 C 
ATOM     10  O   UNL     1       8.690   0.805   5.317  0.00  0.00    +0.000 OA
BRANCH   9  11
ATOM     11  C   UNL     1       7.581   0.143   7.038  0.00  0.00    +0.000 A 
ATOM     12  C   UNL     1       7.581  -0.955   7.851  0.00  0.00    +0.000 A 
ATOM     13  C   UNL     1       7.212  -0.842   9.174  0.00  0.00    +0.000 A 
ATOM     14  C   UNL     1       6.824   0.374   9.685  0.00  0.00    +0.000 A 
ATOM     15  C   UNL     1       6.843   1.489   8.872  0.00  0.00    +0.000 A 
ATOM     16  C   UNL     1       7.233   1.384   7.546  0.00  0.00    +0.000 A 
ENDBRANCH   9  11
ENDBRANCH   4   9
BRANCH   5  17
ATOM     17  O   UNL     1       6.070   0.828   3.738  0.00  0.00    +0.000 OA
ATOM     18  H   UNL     1       5.500   1.177   3.007  0.00  0.00    +0.000 HD
ENDBRANCH   5  17
TORSDOF 4
ENDMDL
MODEL 4
REMARK VINA RESULT:      -3.0     12.035     14.984
REMARK  Name = ox2_orig_f8_ligand
REMARK  5 active torsions:
REMARK  status: ('A' for Active; 'I' for Inactive)
REMARK    1  A    between atoms: C_1  and  O_2
REMARK    2  A    between atoms: O_2  and  C_3
REMARK    3  A    between atoms: C_6  and  C_7
REMARK    4  A    between atoms: C_7  and  C_9
REMARK    5  A    between atoms: C_15  and  O_16
REMARK                            x       y       z     vdW  Elec       q    Type
REMARK                         _______ _______ _______ _____ _____    ______ ____
ROOT
ATOM      1  C   UNL     1       3.073  -9.334  -4.526  0.00  0.00    +0.000 A 
ATOM      2  C   UNL     1       4.128  -9.117  -5.387  0.00  0.00    +0.000 A 
ATOM      3  C   UNL     1       3.928  -8.467  -6.584  0.00  0.00    +0.000 A 
ATOM      4  C   UNL     1       2.669  -8.042  -6.933  0.00  0.00    +0.000 A 
ATOM      5  C   UNL     1       1.600  -8.243  -6.062  0.00  0.00    +0.000 A 
ATOM      6  C   UNL     1       1.814  -8.891  -4.866  0.00  0.00    +0.000 A 
ENDROOT
BRANCH   1   8
ATOM      7  C   UNL     1       2.301 -10.364  -2.516  0.00  0.00    +0.000 C 
ATOM      8  O   UNL     1       3.347  -9.986  -3.364  0.00  0.00    +0.000 OA
ENDBRANCH   1   8
BRANCH   4   9
ATOM      9  C   UNL     1       2.484  -7.350  -8.212  0.00  0.00    +0.000 C 
ATOM     10  O   UNL     1       2.346  -6.251  -8.158  0.00  0.00    +0.000 OA
BRANCH   9  11
ATOM     11  C   UNL     1       2.603  -7.869  -9.552  0.00  0.00    +0.000 A 
ATOM     12  C   UNL     1       1.813  -7.379 -10.554  0.00  0.00    +0.000 A 
ATOM     13  C   UNL     1       1.933  -7.866 -11.837  0.00  0.00    +0.000 A 
ATOM     14  C   UNL     1       2.838  -8.863 -12.119  0.00  0.00    +0.000 A 
ATOM     15  C   UNL     1       3.652  -9.345 -11.115  0.00  0.00    +0.000 A 
ATOM     16  C   UNL     1       3.548  -8.844  -9.827  0.00  0.00    +0.000 A 
ENDBRANCH   9  11
ENDBRANCH   4   9
BRANCH   5  17
ATOM     17  O   UNL     1       0.375  -7.801  -6.390  0.00  0.00    +0.000 OA
ATOM     18  H   UNL     1      -0.098  -7.167  -5.796  0.00  0.00    +0.000 HD
ENDBRANCH   5  17
TORSDOF 4
ENDMDL
MODEL 5
REMARK VINA RESULT:      -3.0      2.773      5.312
REMARK  Name = ox2_orig_f8_ligand
REMARK  5 active torsions:
REMARK  status: ('A' for Active; 'I' for Inactive)
REMARK    1  A    between atoms: C_1  and  O_2
REMARK    2  A    between atoms: O_2  and  C_3
REMARK    3  A    between atoms: C_6  and  C_7
REMARK    4  A    between atoms: C_7  and  C_9
REMARK    5  A    between atoms: C_15  and  O_16
REMARK                            x       y       z     vdW  Elec       q    Type
REMARK                         _______ _______ _______ _____ _____    ______ ____
ROOT
ATOM      1  C   UNL     1      -3.830  -2.442   2.979  0.00  0.00    +0.000 A 
ATOM      2  C   UNL     1      -3.358  -3.496   3.732  0.00  0.00    +0.000 A 
ATOM      3  C   UNL     1      -2.165  -3.388   4.411  0.00  0.00    +0.000 A 
ATOM      4  C   UNL     1      -1.431  -2.230   4.330  0.00  0.00    +0.000 A 
ATOM      5  C   UNL     1      -1.908  -1.153   3.585  0.00  0.00    +0.000 A 
ATOM      6  C   UNL     1      -3.105  -1.273   2.915  0.00  0.00    +0.000 A 
ENDROOT
BRANCH   1   8
ATOM      7  C   UNL     1      -5.207  -3.761   1.544  0.00  0.00    +0.000 C 
ATOM      8  O   UNL     1      -5.014  -2.624   2.335  0.00  0.00    +0.000 OA
ENDBRANCH   1   8
BRANCH   4   9
ATOM      9  C   UNL     1      -0.164  -2.141   5.064  0.00  0.00    +0.000 C 
ATOM     10  O   UNL     1       0.759  -2.175   4.452  0.00  0.00    +0.000 OA
BRANCH   9  11
ATOM     11  C   UNL     1       0.059  -1.864   6.461  0.00  0.00    +0.000 A 
ATOM     12  C   UNL     1      -0.209  -0.623   6.970  0.00  0.00    +0.000 A 
ATOM     13  C   UNL     1      -0.007  -0.361   8.307  0.00  0.00    +0.000 A 
ATOM     14  C   UNL     1       0.483  -1.338   9.140  0.00  0.00    +0.000 A 
ATOM     15  C   UNL     1       0.735  -2.597   8.635  0.00  0.00    +0.000 A 
ATOM     16  C   UNL     1       0.514  -2.872   7.294  0.00  0.00    +0.000 A 
ENDBRANCH   9  11
ENDBRANCH   4   9
BRANCH   5  17
ATOM     17  O   UNL     1      -1.204  -0.012   3.530  0.00  0.00    +0.000 OA
ATOM     18  H   UNL     1      -0.436   0.126   4.140  0.00  0.00    +0.000 HD
ENDBRANCH   5  17
TORSDOF 4
ENDMDL
MODEL 6
REMARK VINA RESULT:      -3.0      9.685     10.637
REMARK  Name = ox2_orig_f8_ligand
REMARK  5 active torsions:
REMARK  status: ('A' for Active; 'I' for Inactive)
REMARK    1  A    between atoms: C_1  and  O_2
REMARK    2  A    between atoms: O_2  and  C_3
REMARK    3  A    between atoms: C_6  and  C_7
REMARK    4  A    between atoms: C_7  and  C_9
REMARK    5  A    between atoms: C_15  and  O_16
REMARK                            x       y       z     vdW  Elec       q    Type
REMARK                         _______ _______ _______ _____ _____    ______ ____
ROOT
ATOM      1  C   UNL     1       2.551   2.396  -2.319  0.00  0.00    +0.000 A 
ATOM      2  C   UNL     1       1.608   3.398  -2.226  0.00  0.00    +0.000 A 
ATOM      3  C   UNL     1       0.362   3.236  -2.789  0.00  0.00    +0.000 A 
ATOM      4  C   UNL     1       0.056   2.076  -3.458  0.00  0.00    +0.000 A 
ATOM      5  C   UNL     1       0.997   1.051  -3.543  0.00  0.00    +0.000 A 
ATOM      6  C   UNL     1       2.238   1.224  -2.972  0.00  0.00    +0.000 A 
ENDROOT
BRANCH   1   8
ATOM      7  C   UNL     1       4.106   3.929  -1.356  0.00  0.00    +0.000 C 
ATOM      8  O   UNL     1       3.760   2.630  -1.742  0.00  0.00    +0.000 OA
ENDBRANCH   1   8
BRANCH   4   9
ATOM      9  C   UNL     1      -1.279   1.928  -4.046  0.00  0.00    +0.000 C 
ATOM     10  O   UNL     1      -1.332   1.964  -5.153  0.00  0.00    +0.000 OA
BRANCH   9  11
ATOM     11  C   UNL     1      -2.524   1.591  -3.402  0.00  0.00    +0.000 A 
ATOM     12  C   UNL     1      -3.358   2.578  -2.955  0.00  0.00    +0.000 A 
ATOM     13  C   UNL     1      -4.553   2.258  -2.349  0.00  0.00    +0.000 A 
ATOM     14  C   UNL     1      -4.911   0.942  -2.172  0.00  0.00    +0.000 A 
ATOM     15  C   UNL     1      -4.082  -0.056  -2.640  0.00  0.00    +0.000 A 
ATOM     16  C   UNL     1      -2.888   0.262  -3.269  0.00  0.00    +0.000 A 
ENDBRANCH   9  11
ENDBRANCH   4   9
BRANCH   5  17
ATOM     17  O   UNL     1       0.688  -0.093  -4.172  0.00  0.00    +0.000 OA
ATOM     18  H   UNL     1       1.295  -0.457  -4.864  0.00  0.00    +0.000 HD
ENDBRANCH   5  17
TORSDOF 4
ENDMDL
MODEL 7
REMARK VINA RESULT:      -3.0      3.064      6.617
REMARK  Name = ox2_orig_f8_ligand
REMARK  5 active torsions:
REMARK  status: ('A' for Active; 'I' for Inactive)
REMARK    1  A    between atoms: C_1  and  O_2
REMARK    2  A    between atoms: O_2  and  C_3
REMARK    3  A    between atoms: C_6  and  C_7
REMARK    4  A    between atoms: C_7  and  C_9
REMARK    5  A    between atoms: C_15  and  O_16
REMARK                            x       y       z     vdW  Elec       q    Type
REMARK                         _______ _______ _______ _____ _____    ______ ____
ROOT
ATOM      1  C   UNL     1       0.061  -1.145   7.257  0.00  0.00    +0.000 A 
ATOM      2  C   UNL     1      -0.538   0.025   7.676  0.00  0.00    +0.000 A 
ATOM      3  C   UNL     1      -1.183   0.839   6.773  0.00  0.00    +0.000 A 
ATOM      4  C   UNL     1      -1.223   0.495   5.444  0.00  0.00    +0.000 A 
ATOM      5  C   UNL     1      -0.636  -0.694   5.014  0.00  0.00    +0.000 A 
ATOM      6  C   UNL     1       0.004  -1.501   5.928  0.00  0.00    +0.000 A 
ENDROOT
BRANCH   1   8
ATOM      7  C   UNL     1       0.343  -3.244   8.357  0.00  0.00    +0.000 C 
ATOM      8  O   UNL     1       0.682  -1.896   8.206  0.00  0.00    +0.000 OA
ENDBRANCH   1   8
BRANCH   4   9
ATOM      9  C   UNL     1      -1.920   1.378   4.504  0.00  0.00    +0.000 C 
ATOM     10  O   UNL     1      -2.590   0.882   3.773  0.00  0.00    +0.000 OA
BRANCH   9  11
ATOM     11  C   UNL     1      -1.978   2.819   4.482  0.00  0.00    +0.000 A 
ATOM     12  C   UNL     1      -3.171   3.463   4.662  0.00  0.00    +0.000 A 
ATOM     13  C   UNL     1      -3.226   4.839   4.653  0.00  0.00    +0.000 A 
ATOM     14  C   UNL     1      -2.086   5.579   4.446  0.00  0.00    +0.000 A 
ATOM     15  C   UNL     1      -0.877   4.933   4.285  0.00  0.00    +0.000 A 
ATOM     16  C   UNL     1      -0.813   3.548   4.314  0.00  0.00    +0.000 A 
ENDBRANCH   9  11
ENDBRANCH   4   9
BRANCH   5  17
ATOM     17  O   UNL     1      -0.700  -1.044   3.720  0.00  0.00    +0.000 OA
ATOM     18  H   UNL     1       0.090  -1.440   3.274  0.00  0.00    +0.000 HD
ENDBRANCH   5  17
TORSDOF 4
ENDMDL
MODEL 8
REMARK VINA RESULT:      -2.9      5.855      6.782
REMARK  Name = ox2_orig_f8_ligand
REMARK  5 active torsions:
REMARK  status: ('A' for Active; 'I' for Inactive)
REMARK    1  A    between atoms: C_1  and  O_2
REMARK    2  A    between atoms: O_2  and  C_3
REMARK    3  A    between atoms: C_6  and  C_7
REMARK    4  A    between atoms: C_7  and  C_9
REMARK    5  A    between atoms: C_15  and  O_16
REMARK                            x       y       z     vdW  Elec       q    Type
REMARK                         _______ _______ _______ _____ _____    ______ ____
ROOT
ATOM      1  C   UNL     1       7.897   0.534   6.354  0.00  0.00    +0.000 A 
ATOM      2  C   UNL     1       8.280  -0.783   6.209  0.00  0.00    +0.000 A 
ATOM      3  C   UNL     1       7.887  -1.505   5.106  0.00  0.00    +0.000 A 
ATOM      4  C   UNL     1       7.098  -0.919   4.146  0.00  0.00    +0.000 A 
ATOM      5  C   UNL     1       6.720   0.416   4.275  0.00  0.00    +0.000 A 
ATOM      6  C   UNL     1       7.123   1.129   5.382  0.00  0.00    +0.000 A 
ENDROOT
BRANCH   1   8
ATOM      7  C   UNL     1       8.272   0.534   8.711  0.00  0.00    +0.000 C 
ATOM      8  O   UNL     1       8.321   1.182   7.472  0.00  0.00    +0.000 OA
ENDBRANCH   1   8
BRANCH   4   9
ATOM      9  C   UNL     1       6.696  -1.710   2.979  0.00  0.00    +0.000 C 
ATOM     10  O   UNL     1       7.244  -1.504   2.037  0.00  0.00    +0.000 OA
BRANCH   9  11
ATOM     11  C   UNL     1       5.789  -2.829   2.907  0.00  0.00    +0.000 A 
ATOM     12  C   UNL     1       6.178  -4.061   3.354  0.00  0.00    +0.000 A 
ATOM     13  C   UNL     1       5.309  -5.128   3.296  0.00  0.00    +0.000 A 
ATOM     14  C   UNL     1       4.047  -4.969   2.773  0.00  0.00    +0.000 A 
ATOM     15  C   UNL     1       3.644  -3.723   2.340  0.00  0.00    +0.000 A 
ATOM     16  C   UNL     1       4.509  -2.641   2.415  0.00  0.00    +0.000 A 
ENDBRANCH   9  11
ENDBRANCH   4   9
BRANCH   5  17
ATOM     17  O   UNL     1       5.973   0.996   3.323  0.00  0.00    +0.000 OA
ATOM     18  H   UNL     1       5.027   1.224   3.506  0.00  0.00    +0.000 HD
ENDBRANCH   5  17
TORSDOF 4
ENDMDL
MODEL 9
REMARK VINA RESULT:      -2.8      2.237      6.037
REMARK  Name = ox2_orig_f8_ligand
REMARK  5 active torsions:
REMARK  status: ('A' for Active; 'I' for Inactive)
REMARK    1  A    between atoms: C_1  and  O_2
REMARK    2  A    between atoms: O_2  and  C_3
REMARK    3  A    between atoms: C_6  and  C_7
REMARK    4  A    between atoms: C_7  and  C_9
REMARK    5  A    between atoms: C_15  and  O_16
REMARK                            x       y       z     vdW  Elec       q    Type
REMARK                         _______ _______ _______ _____ _____    ______ ____
ROOT
ATOM      1  C   UNL     1       1.721  -4.669   1.162  0.00  0.00    +0.000 A 
ATOM      2  C   UNL     1       2.592  -4.205   2.125  0.00  0.00    +0.000 A 
ATOM      3  C   UNL     1       2.148  -3.952   3.403  0.00  0.00    +0.000 A 
ATOM      4  C   UNL     1       0.827  -4.149   3.722  0.00  0.00    +0.000 A 
ATOM      5  C   UNL     1      -0.058  -4.633   2.760  0.00  0.00    +0.000 A 
ATOM      6  C   UNL     1       0.400  -4.885   1.486  0.00  0.00    +0.000 A 
ENDROOT
BRANCH   1   8
ATOM      7  C   UNL     1       3.348  -4.169  -0.511  0.00  0.00    +0.000 C 
ATOM      8  O   UNL     1       2.232  -4.892  -0.079  0.00  0.00    +0.000 OA
ENDBRANCH   1   8
BRANCH   4   9
ATOM      9  C   UNL     1       0.380  -3.874   5.091  0.00  0.00    +0.000 C 
ATOM     10  O   UNL     1       0.336  -4.746   5.775  0.00  0.00    +0.000 OA
BRANCH   9  11
ATOM     11  C   UNL     1       0.128  -2.605   5.729  0.00  0.00    +0.000 A 
ATOM     12  C   UNL     1      -0.336  -1.547   4.998  0.00  0.00    +0.000 A 
ATOM     13  C   UNL     1      -0.587  -0.337   5.608  0.00  0.00    +0.000 A 
ATOM     14  C   UNL     1      -0.356  -0.177   6.954  0.00  0.00    +0.000 A 
ATOM     15  C   UNL     1       0.093  -1.249   7.698  0.00  0.00    +0.000 A 
ATOM     16  C   UNL     1       0.327  -2.474   7.093  0.00  0.00    +0.000 A 
ENDBRANCH   9  11
ENDBRANCH   4   9
BRANCH   5  17
ATOM     17  O   UNL     1      -1.343  -4.852   3.080  0.00  0.00    +0.000 OA
ATOM     18  H   UNL     1      -1.570  -5.322   3.922  0.00  0.00    +0.000 HD
ENDBRANCH   5  17
TORSDOF 4
ENDMDL
