MODEL 1
REMARK VINA RESULT:      -2.9      0.000      0.000
REMARK  Name = shuffle_control_ligand
REMARK  12 active torsions:
REMARK  status: ('A' for Active; 'I' for Inactive)
REMARK    1  A    between atoms: C_1  and  C_2
REMARK    2  A    between atoms: C_2  and  C_3
REMARK    3  A    between atoms: C_3  and  C_4
REMARK    4  A    between atoms: C_4  and  C_5
REMARK    5  A    between atoms: C_5  and  C_6
REMARK    6  A    between atoms: C_5  and  O_8
REMARK    7  A    between atoms: C_6  and  C_7
REMARK    8  A    between atoms: O_8  and  C_9
REMARK    9  A    between atoms: C_9  and  C_11
REMARK   10  A    between atoms: C_12  and  C_13
REMARK   11  A    between atoms: C_16  and  O_17
REMARK   12  A    between atoms: O_17  and  C_18
REMARK                            x       y       z     vdW  Elec       q    Type
REMARK                         _______ _______ _______ _____ _____    ______ ____
ROOT
ATOM      1  C   UNL     1     -11.146  -3.359  -2.963  0.00  0.00    +0.000 C 
ATOM      2  O   UNL     1     -12.068  -3.077  -2.244  0.00  0.00    +0.000 OA
ENDROOT
BRANCH   1   3
ATOM      3  C   UNL     1     -11.057  -4.608  -3.757  0.00  0.00    +0.000 C 
ATOM      4  C   UNL     1      -9.916  -4.953  -4.361  0.00  0.00    +0.000 C 
BRANCH   4   5
ATOM      5  C   UNL     1      -9.755  -6.168  -5.195  0.00  0.00    +0.000 A 
ATOM      6  C   UNL     1     -10.462  -7.319  -4.962  0.00  0.00    +0.000 A 
ATOM      7  C   UNL     1     -10.282  -8.436  -5.770  0.00  0.00    +0.000 A 
ATOM      8  C   UNL     1      -9.392  -8.405  -6.811  0.00  0.00    +0.000 A 
ATOM      9  C   UNL     1      -8.679  -7.255  -7.048  0.00  0.00    +0.000 A 
ATOM     10  C   UNL     1      -8.857  -6.139  -6.240  0.00  0.00    +0.000 A 
BRANCH   8  11
ATOM     11  O   UNL     1      -9.175  -9.464  -7.642  0.00  0.00    +0.000 OA
ATOM     12  C   UNL     1      -8.529  -9.270  -8.886  0.00  0.00    +0.000 C 
ENDBRANCH   8  11
ENDBRANCH   4   5
ENDBRANCH   1   3
BRANCH   1  13
ATOM     13  O   UNL     1     -10.095  -2.546  -3.111  0.00  0.00    +0.000 OA
BRANCH  13  14
ATOM     14  C   UNL     1     -10.278  -1.214  -3.543  0.00  0.00    +0.000 C 
BRANCH  14  15
ATOM     15  C   UNL     1      -9.050  -0.385  -3.203  0.00  0.00    +0.000 C 
ATOM     16  C   UNL     1      -8.037  -1.075  -2.354  0.00  0.00    +0.000 C 
ENDBRANCH  14  15
BRANCH  14  17
ATOM     17  C   UNL     1     -10.471  -1.216  -5.042  0.00  0.00    +0.000 C 
BRANCH  17  18
ATOM     18  C   UNL     1      -9.221  -0.947  -5.815  0.00  0.00    +0.000 C 
BRANCH  18  20
ATOM     19  C   UNL     1      -7.368  -2.617  -5.778  0.00  0.00    +0.000 C 
ATOM     20  C   UNL     1      -8.654  -2.199  -6.433  0.00  0.00    +0.000 C 
ENDBRANCH  18  20
ENDBRANCH  17  18
ENDBRANCH  14  17
ENDBRANCH  13  14
ENDBRANCH   1  13
TORSDOF 9
ENDMDL
MODEL 2
REMARK VINA RESULT:      -2.9      2.446      6.107
REMARK  Name = shuffle_control_ligand
REMARK  12 active torsions:
REMARK  status: ('A' for Active; 'I' for Inactive)
REMARK    1  A    between atoms: C_1  and  C_2
REMARK    2  A    between atoms: C_2  and  C_3
REMARK    3  A    between atoms: C_3  and  C_4
REMARK    4  A    between atoms: C_4  and  C_5
REMARK    5  A    between atoms: C_5  and  C_6
REMARK    6  A    between atoms: C_5  and  O_8
REMARK    7  A    between atoms: C_6  and  C_7
REMARK    8  A    between atoms: O_8  and  C_9
REMARK    9  A    between atoms: C_9  and  C_11
REMARK   10  A    between atoms: C_12  and  C_13
REMARK   11  A    between atoms: C_16  and  O_17
REMARK   12  A    between atoms: O_17  and  C_18
REMARK                            x       y       z     vdW  Elec       q    Type
REMARK                         _______ _______ _______ _____ _____    ______ ____
ROOT
ATOM      1  C   UNL     1     -10.609  -6.093  -3.492  0.00  0.00    +0.000 C 
ATOM      2  O   UNL     1     -11.651  -5.855  -2.942  0.00  0.00    +0.000 OA
ENDROOT
BRANCH   1   3
ATOM      3  C   UNL     1      -9.927  -5.170  -4.431  0.00  0.00    +0.000 C 
ATOM      4  C   UNL     1     -10.043  -3.846  -4.293  0.00  0.00    +0.000 C 
BRANCH   4   5
ATOM      5  C   UNL     1      -9.418  -2.860  -5.205  0.00  0.00    +0.000 A 
ATOM      6  C   UNL     1      -9.838  -1.558  -5.282  0.00  0.00    +0.000 A 
ATOM      7  C   UNL     1      -9.222  -0.664  -6.151  0.00  0.00    +0.000 A 
ATOM      8  C   UNL     1      -8.185  -1.074  -6.948  0.00  0.00    +0.000 A 
ATOM      9  C   UNL     1      -7.761  -2.378  -6.877  0.00  0.00    +0.000 A 
ATOM     10  C   UNL     1      -8.378  -3.272  -6.010  0.00  0.00    +0.000 A 
BRANCH   8  11
ATOM     11  O   UNL     1      -7.536  -0.245  -7.816  0.00  0.00    +0.000 OA
ATOM     12  C   UNL     1      -6.223  -0.553  -8.243  0.00  0.00    +0.000 C 
ENDBRANCH   8  11
ENDBRANCH   4   5
ENDBRANCH   1   3
BRANCH   1  13
ATOM     13  O   UNL     1      -9.958  -7.245  -3.297  0.00  0.00    +0.000 OA
BRANCH  13  14
ATOM     14  C   UNL     1      -8.927  -7.641  -4.178  0.00  0.00    +0.000 C 
BRANCH  14  15
ATOM     15  C   UNL     1      -7.712  -8.095  -3.386  0.00  0.00    +0.000 C 
ATOM     16  C   UNL     1      -6.418  -8.038  -4.125  0.00  0.00    +0.000 C 
ENDBRANCH  14  15
BRANCH  14  17
ATOM     17  C   UNL     1      -9.428  -8.794  -5.018  0.00  0.00    +0.000 C 
BRANCH  17  18
ATOM     18  C   UNL     1      -9.847  -8.402  -6.398  0.00  0.00    +0.000 C 
BRANCH  18  20
ATOM     19  C   UNL     1      -7.708  -8.371  -7.682  0.00  0.00    +0.000 C 
ATOM     20  C   UNL     1      -8.813  -7.546  -7.084  0.00  0.00    +0.000 C 
ENDBRANCH  18  20
ENDBRANCH  17  18
ENDBRANCH  14  17
ENDBRANCH  13  14
ENDBRANCH   1  13
TORSDOF 9
ENDMDL
MODEL 3
REMARK VINA RESULT:      -2.8      2.158      3.350
REMARK  Name = shuffle_control_ligand
REMARK  12 active torsions:
REMARK  status: ('A' for Active; 'I' for Inactive)
REMARK    1  A    between atoms: C_1  and  C_2
REMARK    2  A    between atoms: C_2  and  C_3
REMARK    3  A    between atoms: C_3  and  C_4
REMARK    4  A    between atoms: C_4  and  C_5
REMARK    5  A    between atoms: C_5  and  C_6
REMARK    6  A    between atoms: C_5  and  O_8
REMARK    7  A    between atoms: C_6  and  C_7
REMARK    8  A    between atoms: O_8  and  C_9
REMARK    9  A    between atoms: C_9  and  C_11
REMARK   10  A    between atoms: C_12  and  C_13
REMARK   11  A    between atoms: C_16  and  O_17
REMARK   12  A    between atoms: O_17  and  C_18
REMARK                            x       y       z     vdW  Elec       q    Type
REMARK                         _______ _______ _______ _____ _____    ______ ____
ROOT
ATOM      1  C   UNL     1      -7.073  -1.673  -5.568  0.00  0.00    +0.000 C 
ATOM      2  O   UNL     1      -7.126  -1.125  -6.637  0.00  0.00    +0.000 OA
ENDROOT
BRANCH   1   3
ATOM      3  C   UNL     1      -7.447  -3.089  -5.334  0.00  0.00    +0.000 C 
ATOM      4  C   UNL     1      -8.544  -3.608  -5.893  0.00  0.00    +0.000 C 
BRANCH   4   5
ATOM      5  C   UNL     1      -8.999  -5.003  -5.684  0.00  0.00    +0.000 A 
ATOM      6  C   UNL     1      -9.705  -5.388  -4.574  0.00  0.00    +0.000 A 
ATOM      7  C   UNL     1     -10.115  -6.708  -4.419  0.00  0.00    +0.000 A 
ATOM      8  C   UNL     1      -9.816  -7.645  -5.373  0.00  0.00    +0.000 A 
ATOM      9  C   UNL     1      -9.108  -7.265  -6.486  0.00  0.00    +0.000 A 
ATOM     10  C   UNL     1      -8.696  -5.947  -6.642  0.00  0.00    +0.000 A 
BRANCH   8  11
ATOM     11  O   UNL     1     -10.194  -8.953  -5.282  0.00  0.00    +0.000 OA
ATOM     12  C   UNL     1     -11.329  -9.414  -5.990  0.00  0.00    +0.000 C 
ENDBRANCH   8  11
ENDBRANCH   4   5
ENDBRANCH   1   3
BRANCH   1  13
ATOM     13  O   UNL     1      -6.661  -1.033  -4.469  0.00  0.00    +0.000 OA
BRANCH  13  14
ATOM     14  C   UNL     1      -7.189  -1.373  -3.204  0.00  0.00    +0.000 C 
BRANCH  14  15
ATOM     15  C   UNL     1      -6.202  -0.999  -2.111  0.00  0.00    +0.000 C 
ATOM     16  C   UNL     1      -6.500  -1.572  -0.767  0.00  0.00    +0.000 C 
ENDBRANCH  14  15
BRANCH  14  17
ATOM     17  C   UNL     1      -8.472  -0.602  -2.995  0.00  0.00    +0.000 C 
BRANCH  17  18
ATOM     18  C   UNL     1      -9.697  -1.458  -2.971  0.00  0.00    +0.000 C 
BRANCH  18  20
ATOM     19  C   UNL     1     -11.666  -2.223  -4.299  0.00  0.00    +0.000 C 
ATOM     20  C   UNL     1     -10.627  -1.152  -4.116  0.00  0.00    +0.000 C 
ENDBRANCH  18  20
ENDBRANCH  17  18
ENDBRANCH  14  17
ENDBRANCH  13  14
ENDBRANCH   1  13
TORSDOF 9
ENDMDL
MODEL 4
REMARK VINA RESULT:      -2.7      2.644      4.347
REMARK  Name = shuffle_control_ligand
REMARK  12 active torsions:
REMARK  status: ('A' for Active; 'I' for Inactive)
REMARK    1  A    between atoms: C_1  and  C_2
REMARK    2  A    between atoms: C_2  and  C_3
REMARK    3  A    between atoms: C_3  and  C_4
REMARK    4  A    between atoms: C_4  and  C_5
REMARK    5  A    between atoms: C_5  and  C_6
REMARK    6  A    between atoms: C_5  and  O_8
REMARK    7  A    between atoms: C_6  and  C_7
REMARK    8  A    between atoms: O_8  and  C_9
REMARK    9  A    between atoms: C_9  and  C_11
REMARK   10  A    between atoms: C_12  and  C_13
REMARK   11  A    between atoms: C_16  and  O_17
REMARK   12  A    between atoms: O_17  and  C_18
REMARK                            x       y       z     vdW  Elec       q    Type
REMARK                         _______ _______ _______ _____ _____    ______ ____
ROOT
ATOM      1  C   UNL     1      -7.014  -1.663  -5.655  0.00  0.00    +0.000 C 
ATOM      2  O   UNL     1      -6.680  -0.707  -5.005  0.00  0.00    +0.000 OA
ENDROOT
BRANCH   1   3
ATOM      3  C   UNL     1      -7.748  -2.830  -5.110  0.00  0.00    +0.000 C 
ATOM      4  C   UNL     1      -8.330  -3.714  -5.926  0.00  0.00    +0.000 C 
BRANCH   4   5
ATOM      5  C   UNL     1      -9.104  -4.888  -5.459  0.00  0.00    +0.000 A 
ATOM      6  C   UNL     1      -8.943  -6.138  -5.997  0.00  0.00    +0.000 A 
ATOM      7  C   UNL     1      -9.689  -7.213  -5.527  0.00  0.00    +0.000 A 
ATOM      8  C   UNL     1     -10.601  -7.038  -4.520  0.00  0.00    +0.000 A 
ATOM      9  C   UNL     1     -10.769  -5.788  -3.978  0.00  0.00    +0.000 A 
ATOM     10  C   UNL     1     -10.025  -4.712  -4.448  0.00  0.00    +0.000 A 
BRANCH   8  11
ATOM     11  O   UNL     1     -11.358  -8.053  -4.012  0.00  0.00    +0.000 OA
ATOM     12  C   UNL     1     -10.734  -9.161  -3.393  0.00  0.00    +0.000 C 
ENDBRANCH   8  11
ENDBRANCH   4   5
ENDBRANCH   1   3
BRANCH   1  13
ATOM     13  O   UNL     1      -6.743  -1.755  -6.961  0.00  0.00    +0.000 OA
BRANCH  13  14
ATOM     14  C   UNL     1      -7.152  -0.735  -7.848  0.00  0.00    +0.000 C 
BRANCH  14  15
ATOM     15  C   UNL     1      -6.033  -0.418  -8.827  0.00  0.00    +0.000 C 
ATOM     16  C   UNL     1      -4.654  -0.561  -8.278  0.00  0.00    +0.000 C 
ENDBRANCH  14  15
BRANCH  14  17
ATOM     17  C   UNL     1      -8.358  -1.223  -8.619  0.00  0.00    +0.000 C 
BRANCH  17  18
ATOM     18  C   UNL     1      -9.521  -0.285  -8.581  0.00  0.00    +0.000 C 
BRANCH  18  20
ATOM     19  C   UNL     1     -10.498  -0.471  -6.293  0.00  0.00    +0.000 C 
ATOM     20  C   UNL     1      -9.680   0.369  -7.233  0.00  0.00    +0.000 C 
ENDBRANCH  18  20
ENDBRANCH  17  18
ENDBRANCH  14  17
ENDBRANCH  13  14
ENDBRANCH   1  13
TORSDOF 9
ENDMDL
MODEL 5
REMARK VINA RESULT:      -2.7      2.092      3.571
REMARK  Name = shuffle_control_ligand
REMARK  12 active torsions:
REMARK  status: ('A' for Active; 'I' for Inactive)
REMARK    1  A    between atoms: C_1  and  C_2
REMARK    2  A    between atoms: C_2  and  C_3
REMARK    3  A    between atoms: C_3  and  C_4
REMARK    4  A    between atoms: C_4  and  C_5
REMARK    5  A    between atoms: C_5  and  C_6
REMARK    6  A    between atoms: C_5  and  O_8
REMARK    7  A    between atoms: C_6  and  C_7
REMARK    8  A    between atoms: O_8  and  C_9
REMARK    9  A    between atoms: C_9  and  C_11
REMARK   10  A    between atoms: C_12  and  C_13
REMARK   11  A    between atoms: C_16  and  O_17
REMARK   12  A    between atoms: O_17  and  C_18
REMARK                            x       y       z     vdW  Elec       q    Type
REMARK                         _______ _______ _______ _____ _____    ______ ____
ROOT
ATOM      1  C   UNL     1      -7.591  -1.994  -6.592  0.00  0.00    +0.000 C 
ATOM      2  O   UNL     1      -6.421  -1.751  -6.715  0.00  0.00    +0.000 OA
ENDROOT
BRANCH   1   3
ATOM      3  C   UNL     1      -8.174  -3.356  -6.656  0.00  0.00    +0.000 C 
ATOM      4  C   UNL     1      -8.516  -4.007  -5.540  0.00  0.00    +0.000 C 
BRANCH   4   5
ATOM      5  C   UNL     1      -9.076  -5.379  -5.520  0.00  0.00    +0.000 A 
ATOM      6  C   UNL     1      -8.774  -6.311  -6.478  0.00  0.00    +0.000 A 
ATOM      7  C   UNL     1      -9.320  -7.589  -6.421  0.00  0.00    +0.000 A 
ATOM      8  C   UNL     1     -10.173  -7.934  -5.405  0.00  0.00    +0.000 A 
ATOM      9  C   UNL     1     -10.481  -7.004  -4.444  0.00  0.00    +0.000 A 
ATOM     10  C   UNL     1      -9.937  -5.726  -4.501  0.00  0.00    +0.000 A 
BRANCH   8  11
ATOM     11  O   UNL     1     -10.736  -9.172  -5.290  0.00  0.00    +0.000 OA
ATOM     12  C   UNL     1     -11.571  -9.669  -6.317  0.00  0.00    +0.000 C 
ENDBRANCH   8  11
ENDBRANCH   4   5
ENDBRANCH   1   3
BRANCH   1  13
ATOM     13  O   UNL     1      -8.492  -1.029  -6.380  0.00  0.00    +0.000 OA
BRANCH  13  14
ATOM     14  C   UNL     1      -8.397  -0.200  -5.241  0.00  0.00    +0.000 C 
BRANCH  14  15
ATOM     15  C   UNL     1      -8.687   1.243  -5.622  0.00  0.00    +0.000 C 
ATOM     16  C   UNL     1      -8.804   1.497  -7.087  0.00  0.00    +0.000 C 
ENDBRANCH  14  15
BRANCH  14  17
ATOM     17  C   UNL     1      -9.419  -0.657  -4.226  0.00  0.00    +0.000 C 
BRANCH  17  18
ATOM     18  C   UNL     1     -10.807  -0.764  -4.770  0.00  0.00    +0.000 C 
BRANCH  18  20
ATOM     19  C   UNL     1     -11.255  -2.560  -3.098  0.00  0.00    +0.000 C 
ATOM     20  C   UNL     1     -11.409  -2.123  -4.528  0.00  0.00    +0.000 C 
ENDBRANCH  18  20
ENDBRANCH  17  18
ENDBRANCH  14  17
ENDBRANCH  13  14
ENDBRANCH   1  13
TORSDOF 9
ENDMDL
MODEL 6
REMARK VINA RESULT:      -2.7      1.917      3.170
REMARK  Name = shuffle_control_ligand
REMARK  12 active torsions:
REMARK  status: ('A' for Active; 'I' for Inactive)
REMARK    1  A    between atoms: C_1  and  C_2
REMARK    2  A    between atoms: C_2  and  C_3
REMARK    3  A    between atoms: C_3  and  C_4
REMARK    4  A    between atoms: C_4  and  C_5
REMARK    5  A    between atoms: C_5  and  C_6
REMARK    6  A    between atoms: C_5  and  O_8
REMARK    7  A    between atoms: C_6  and  C_7
REMARK    8  A    between atoms: O_8  and  C_9
REMARK    9  A    between atoms: C_9  and  C_11
REMARK   10  A    between atoms: C_12  and  C_13
REMARK   11  A    between atoms: C_16  and  O_17
REMARK   12  A    between atoms: O_17  and  C_18
REMARK                            x       y       z     vdW  Elec       q    Type
REMARK                         _______ _______ _______ _____ _____    ______ ____
ROOT
ATOM      1  C   UNL     1     -10.439  -0.538  -4.412  0.00  0.00    +0.000 C 
ATOM      2  O   UNL     1     -10.613  -0.017  -3.343  0.00  0.00    +0.000 OA
ENDROOT
BRANCH   1   3
ATOM      3  C   UNL     1     -10.631  -1.985  -4.679  0.00  0.00    +0.000 C 
ATOM      4  C   UNL     1      -9.702  -2.875  -4.319  0.00  0.00    +0.000 C 
BRANCH   4   5
ATOM      5  C   UNL     1      -9.807  -4.331  -4.576  0.00  0.00    +0.000 A 
ATOM      6  C   UNL     1     -10.751  -5.119  -3.971  0.00  0.00    +0.000 A 
ATOM      7  C   UNL     1     -10.816  -6.481  -4.243  0.00  0.00    +0.000 A 
ATOM      8  C   UNL     1      -9.934  -7.058  -5.119  0.00  0.00    +0.000 A 
ATOM      9  C   UNL     1      -8.985  -6.274  -5.726  0.00  0.00    +0.000 A 
ATOM     10  C   UNL     1      -8.918  -4.913  -5.454  0.00  0.00    +0.000 A 
BRANCH   8  11
ATOM     11  O   UNL     1      -9.950  -8.386  -5.431  0.00  0.00    +0.000 OA
ATOM     12  C   UNL     1      -8.853  -8.969  -6.106  0.00  0.00    +0.000 C 
ENDBRANCH   8  11
ENDBRANCH   4   5
ENDBRANCH   1   3
BRANCH   1  13
ATOM     13  O   UNL     1     -10.046   0.162  -5.481  0.00  0.00    +0.000 OA
BRANCH  13  14
ATOM     14  C   UNL     1     -10.174  -0.382  -6.778  0.00  0.00    +0.000 C 
BRANCH  14  15
ATOM     15  C   UNL     1     -11.065   0.509  -7.629  0.00  0.00    +0.000 C 
ATOM     16  C   UNL     1     -11.353  -0.009  -8.997  0.00  0.00    +0.000 C 
ENDBRANCH  14  15
BRANCH  14  17
ATOM     17  C   UNL     1      -8.802  -0.454  -7.408  0.00  0.00    +0.000 C 
BRANCH  17  18
ATOM     18  C   UNL     1      -8.213  -1.828  -7.422  0.00  0.00    +0.000 C 
BRANCH  18  20
ATOM     19  C   UNL     1      -6.765  -0.957  -5.587  0.00  0.00    +0.000 C 
ATOM     20  C   UNL     1      -6.852  -1.869  -6.779  0.00  0.00    +0.000 C 
ENDBRANCH  18  20
ENDBRANCH  17  18
ENDBRANCH  14  17
ENDBRANCH  13  14
ENDBRANCH   1  13
TORSDOF 9
ENDMDL
MODEL 7
REMARK VINA RESULT:      -2.7      2.390      6.066
REMARK  Name = shuffle_control_ligand
REMARK  12 active torsions:
REMARK  status: ('A' for Active; 'I' for Inactive)
REMARK    1  A    between atoms: C_1  and  C_2
REMARK    2  A    between atoms: C_2  and  C_3
REMARK    3  A    between atoms: C_3  and  C_4
REMARK    4  A    between atoms: C_4  and  C_5
REMARK    5  A    between atoms: C_5  and  C_6
REMARK    6  A    between atoms: C_5  and  O_8
REMARK    7  A    between atoms: C_6  and  C_7
REMARK    8  A    between atoms: O_8  and  C_9
REMARK    9  A    between atoms: C_9  and  C_11
REMARK   10  A    between atoms: C_12  and  C_13
REMARK   11  A    between atoms: C_16  and  O_17
REMARK   12  A    between atoms: O_17  and  C_18
REMARK                            x       y       z     vdW  Elec       q    Type
REMARK                         _______ _______ _______ _____ _____    ______ ____
ROOT
ATOM      1  C   UNL     1      -9.486  -6.430  -4.877  0.00  0.00    +0.000 C 
ATOM      2  O   UNL     1      -9.205  -7.529  -5.275  0.00  0.00    +0.000 OA
ENDROOT
BRANCH   1   3
ATOM      3  C   UNL     1      -9.089  -5.169  -5.549  0.00  0.00    +0.000 C 
ATOM      4  C   UNL     1      -8.258  -4.310  -4.954  0.00  0.00    +0.000 C 
BRANCH   4   5
ATOM      5  C   UNL     1      -7.838  -3.018  -5.547  0.00  0.00    +0.000 A 
ATOM      6  C   UNL     1      -7.233  -2.032  -4.811  0.00  0.00    +0.000 A 
ATOM      7  C   UNL     1      -6.853  -0.835  -5.409  0.00  0.00    +0.000 A 
ATOM      8  C   UNL     1      -7.081  -0.621  -6.743  0.00  0.00    +0.000 A 
ATOM      9  C   UNL     1      -7.688  -1.605  -7.484  0.00  0.00    +0.000 A 
ATOM     10  C   UNL     1      -8.070  -2.801  -6.888  0.00  0.00    +0.000 A 
BRANCH   8  11
ATOM     11  O   UNL     1      -6.726   0.527  -7.388  0.00  0.00    +0.000 OA
ATOM     12  C   UNL     1      -7.550   1.674  -7.298  0.00  0.00    +0.000 C 
ENDBRANCH   8  11
ENDBRANCH   4   5
ENDBRANCH   1   3
BRANCH   1  13
ATOM     13  O   UNL     1     -10.202  -6.248  -3.763  0.00  0.00    +0.000 OA
BRANCH  13  14
ATOM     14  C   UNL     1     -11.412  -5.521  -3.802  0.00  0.00    +0.000 C 
BRANCH  14  15
ATOM     15  C   UNL     1     -12.594  -6.475  -3.741  0.00  0.00    +0.000 C 
ATOM     16  C   UNL     1     -13.905  -5.882  -4.133  0.00  0.00    +0.000 C 
ENDBRANCH  14  15
BRANCH  14  17
ATOM     17  C   UNL     1     -11.460  -4.599  -2.604  0.00  0.00    +0.000 C 
BRANCH  17  18
ATOM     18  C   UNL     1     -11.111  -3.180  -2.917  0.00  0.00    +0.000 C 
BRANCH  18  20
ATOM     19  C   UNL     1     -11.006  -1.498  -4.757  0.00  0.00    +0.000 C 
ATOM     20  C   UNL     1     -11.691  -2.729  -4.232  0.00  0.00    +0.000 C 
ENDBRANCH  18  20
ENDBRANCH  17  18
ENDBRANCH  14  17
ENDBRANCH  13  14
ENDBRANCH   1  13
TORSDOF 9
ENDMDL
MODEL 8
REMARK VINA RESULT:      -2.7      2.146      6.965
REMARK  Name = shuffle_control_ligand
REMARK  12 active torsions:
REMARK  status: ('A' for Active; 'I' for Inactive)
REMARK    1  A    between atoms: C_1  and  C_2
REMARK    2  A    between atoms: C_2  and  C_3
REMARK    3  A    between atoms: C_3  and  C_4
REMARK    4  A    between atoms: C_4  and  C_5
REMARK    5  A    between atoms: C_5  and  C_6
REMARK    6  A    between atoms: C_5  and  O_8
REMARK    7  A    between atoms: C_6  and  C_7
REMARK    8  A    between atoms: O_8  and  C_9
REMARK    9  A    between atoms: C_9  and  C_11
REMARK   10  A    between atoms: C_12  and  C_13
REMARK   11  A    between atoms: C_16  and  O_17
REMARK   12  A    between atoms: O_17  and  C_18
REMARK                            x       y       z     vdW  Elec       q    Type
REMARK                         _______ _______ _______ _____ _____    ______ ____
ROOT
ATOM      1  C   UNL     1      -8.636  -7.902  -5.969  0.00  0.00    +0.000 C 
ATOM      2  O   UNL     1      -7.628  -8.416  -6.375  0.00  0.00    +0.000 OA
ENDROOT
BRANCH   1   3
ATOM      3  C   UNL     1      -8.968  -6.466  -6.134  0.00  0.00    +0.000 C 
ATOM      4  C   UNL     1      -8.677  -5.582  -5.174  0.00  0.00    +0.000 C 
BRANCH   4   5
ATOM      5  C   UNL     1      -9.002  -4.138  -5.252  0.00  0.00    +0.000 A 
ATOM      6  C   UNL     1      -9.965  -3.558  -4.469  0.00  0.00    +0.000 A 
ATOM      7  C   UNL     1     -10.237  -2.198  -4.573  0.00  0.00    +0.000 A 
ATOM      8  C   UNL     1      -9.547  -1.417  -5.463  0.00  0.00    +0.000 A 
ATOM      9  C   UNL     1      -8.582  -1.994  -6.251  0.00  0.00    +0.000 A 
ATOM     10  C   UNL     1      -8.311  -3.353  -6.150  0.00  0.00    +0.000 A 
BRANCH   8  11
ATOM     11  O   UNL     1      -9.763  -0.078  -5.608  0.00  0.00    +0.000 OA
ATOM     12  C   UNL     1     -10.377   0.419  -6.781  0.00  0.00    +0.000 C 
ENDBRANCH   8  11
ENDBRANCH   4   5
ENDBRANCH   1   3
BRANCH   1  13
ATOM     13  O   UNL     1      -9.570  -8.601  -5.316  0.00  0.00    +0.000 OA
BRANCH  13  14
ATOM     14  C   UNL     1     -10.922  -8.536  -5.718  0.00  0.00    +0.000 C 
BRANCH  14  15
ATOM     15  C   UNL     1     -11.308  -9.810  -6.452  0.00  0.00    +0.000 C 
ATOM     16  C   UNL     1     -12.303  -9.630  -7.549  0.00  0.00    +0.000 C 
ENDBRANCH  14  15
BRANCH  14  17
ATOM     17  C   UNL     1     -11.785  -8.398  -4.484  0.00  0.00    +0.000 C 
BRANCH  17  18
ATOM     18  C   UNL     1     -12.184  -6.990  -4.179  0.00  0.00    +0.000 C 
BRANCH  18  20
ATOM     19  C   UNL     1     -10.819  -7.530  -2.163  0.00  0.00    +0.000 C 
ATOM     20  C   UNL     1     -11.462  -6.442  -2.976  0.00  0.00    +0.000 C 
ENDBRANCH  18  20
ENDBRANCH  17  18
ENDBRANCH  14  17
ENDBRANCH  13  14
ENDBRANCH   1  13
TORSDOF 9
ENDMDL
MODEL 9
REMARK VINA RESULT:      -2.7      2.622      4.555
REMARK  Name = shuffle_control_ligand
REMARK  12 active torsions:
REMARK  status: ('A' for Active; 'I' for Inactive)
REMARK    1  A    between atoms: C_1  and  C_2
REMARK    2  A    between atoms: C_2  and  C_3
REMARK    3  A    between atoms: C_3  and  C_4
REMARK    4  A    between atoms: C_4  and  C_5
REMARK    5  A    between atoms: C_5  and  C_6
REMARK    6  A    between atoms: C_5  and  O_8
REMARK    7  A    between atoms: C_6  and  C_7
REMARK    8  A    between atoms: O_8  and  C_9
REMARK    9  A    between atoms: C_9  and  C_11
REMARK   10  A    between atoms: C_12  and  C_13
REMARK   11  A    between atoms: C_16  and  O_17
REMARK   12  A    between atoms: O_17  and  C_18
REMARK                            x       y       z     vdW  Elec       q    Type
REMARK                         _______ _______ _______ _____ _____    ______ ____
ROOT
ATOM      1  C   UNL     1      -6.867  -1.755  -6.072  0.00  0.00    +0.000 C 
ATOM      2  O   UNL     1      -6.245  -0.902  -5.497  0.00  0.00    +0.000 OA
ENDROOT
BRANCH   1   3
ATOM      3  C   UNL     1      -7.555  -2.885  -5.402  0.00  0.00    +0.000 C 
ATOM      4  C   UNL     1      -8.384  -3.682  -6.083  0.00  0.00    +0.000 C 
BRANCH   4   5
ATOM      5  C   UNL     1      -9.128  -4.812  -5.479  0.00  0.00    +0.000 A 
ATOM      6  C   UNL     1      -9.015  -6.098  -5.940  0.00  0.00    +0.000 A 
ATOM      7  C   UNL     1      -9.731  -7.129  -5.342  0.00  0.00    +0.000 A 
ATOM      8  C   UNL     1     -10.564  -6.875  -4.284  0.00  0.00    +0.000 A 
ATOM      9  C   UNL     1     -10.683  -5.589  -3.820  0.00  0.00    +0.000 A 
ATOM     10  C   UNL     1      -9.969  -4.557  -4.417  0.00  0.00    +0.000 A 
BRANCH   8  11
ATOM     11  O   UNL     1     -11.287  -7.844  -3.652  0.00  0.00    +0.000 OA
ATOM     12  C   UNL     1     -12.596  -8.152  -4.091  0.00  0.00    +0.000 C 
ENDBRANCH   8  11
ENDBRANCH   4   5
ENDBRANCH   1   3
BRANCH   1  13
ATOM     13  O   UNL     1      -6.996  -1.755  -7.403  0.00  0.00    +0.000 OA
BRANCH  13  14
ATOM     14  C   UNL     1      -7.556  -0.641  -8.066  0.00  0.00    +0.000 C 
BRANCH  14  15
ATOM     15  C   UNL     1      -7.258  -0.719  -9.555  0.00  0.00    +0.000 C 
ATOM     16  C   UNL     1      -8.360  -1.276 -10.391  0.00  0.00    +0.000 C 
ENDBRANCH  14  15
BRANCH  14  17
ATOM     17  C   UNL     1      -9.054  -0.660  -7.861  0.00  0.00    +0.000 C 
BRANCH  17  18
ATOM     18  C   UNL     1      -9.593   0.575  -7.215  0.00  0.00    +0.000 C 
BRANCH  18  20
ATOM     19  C   UNL     1     -10.772  -0.899  -5.583  0.00  0.00    +0.000 C 
ATOM     20  C   UNL     1      -9.955   0.349  -5.770  0.00  0.00    +0.000 C 
ENDBRANCH  18  20
ENDBRANCH  17  18
ENDBRANCH  14  17
ENDBRANCH  13  14
ENDBRANCH   1  13
TORSDOF 9
ENDMDL
