REMARK  Name = bg33_3_ligand
REMARK  12 active torsions:
REMARK  status: ('A' for Active; 'I' for Inactive)
REMARK    1  A    between atoms: C_1  and  C_2
REMARK    2  A    between atoms: C_2  and  C_3
REMARK    3  A    between atoms: C_3  and  C_4
REMARK    4  A    between atoms: C_4  and  C_5
REMARK    5  A    between atoms: C_5  and  C_6
REMARK    6  A    between atoms: C_5  and  O_8
REMARK    7  A    between atoms: C_6  and  C_7
REMARK    8  A    between atoms: O_8  and  C_9
REMARK    9  A    between atoms: C_9  and  C_11
REMARK   10  A    between atoms: C_12  and  C_13
REMARK   11  A    between atoms: C_16  and  O_17
REMARK   12  A    between atoms: O_17  and  C_18
REMARK                            x       y       z     vdW  Elec       q    Type
REMARK                         _______ _______ _______ _____ _____    ______ ____
ROOT
ATOM      1  C   UNL     1      -0.565  -9.300  -0.227  0.00  0.00    +0.000 C 
ATOM      2  O   UNL     1       0.201  -9.178  -1.154  0.00  0.00    +0.000 OA
ENDROOT
BRANCH   1   3
ATOM      3  C   UNL     1      -0.307  -8.607   1.153  0.00  0.00    +0.000 C 
ATOM      4  C   UNL     1      -0.812  -7.370   1.364  0.00  0.00    +0.000 C 
BRANCH   4   5
ATOM      5  C   UNL     1      -0.537  -6.627   2.567  0.00  0.00    +0.000 A 
ATOM      6  C   UNL     1       0.717  -6.116   2.819  0.00  0.00    +0.000 A 
ATOM      7  C   UNL     1       0.987  -5.374   3.912  0.00  0.00    +0.000 A 
ATOM      8  C   UNL     1      -0.034  -5.129   4.801  0.00  0.00    +0.000 A 
ATOM      9  C   UNL     1      -1.276  -5.647   4.602  0.00  0.00    +0.000 A 
ATOM     10  C   UNL     1      -1.529  -6.394   3.471  0.00  0.00    +0.000 A 
BRANCH   8  11
ATOM     11  O   UNL     1       0.161  -4.428   5.939  0.00  0.00    +0.000 OA
ATOM     12  C   UNL     1       1.271  -3.547   5.936  0.00  0.00    +0.000 C 
ENDBRANCH   8  11
ENDBRANCH   4   5
ENDBRANCH   1   3
BRANCH   1  13
ATOM     13  O   UNL     1      -1.578 -10.036  -0.405  0.00  0.00    +0.000 OA
BRANCH  13  14
ATOM     14  C   UNL     1      -1.951 -10.347  -1.785  0.00  0.00    +0.000 C 
BRANCH  14  15
ATOM     15  C   UNL     1      -3.387 -10.587  -1.833  0.00  0.00    +0.000 C 
ATOM     16  C   UNL     1      -3.997 -10.833  -0.486  0.00  0.00    +0.000 C 
ENDBRANCH  14  15
BRANCH  14  17
ATOM     17  C   UNL     1      -1.200 -11.568  -2.284  0.00  0.00    +0.000 C 
BRANCH  17  18
ATOM     18  C   UNL     1      -0.824 -11.312  -3.760  0.00  0.00    +0.000 C 
BRANCH  18  20
ATOM     19  C   UNL     1       0.794 -11.734  -5.576  0.00  0.00    +0.000 C 
ATOM     20  C   UNL     1       0.153 -12.310  -4.295  0.00  0.00    +0.000 C 
ENDBRANCH  18  20
ENDBRANCH  17  18
ENDBRANCH  14  17
ENDBRANCH  13  14
ENDBRANCH   1  13
TORSDOF 9
