MODEL 1
REMARK VINA RESULT:      -4.1      0.000      0.000
REMARK  Name = bg33_3_ligand
REMARK  12 active torsions:
REMARK  status: ('A' for Active; 'I' for Inactive)
REMARK    1  A    between atoms: C_1  and  C_2
REMARK    2  A    between atoms: C_2  and  C_3
REMARK    3  A    between atoms: C_3  and  C_4
REMARK    4  A    between atoms: C_4  and  C_5
REMARK    5  A    between atoms: C_5  and  C_6
REMARK    6  A    between atoms: C_5  and  O_8
REMARK    7  A    between atoms: C_6  and  C_7
REMARK    8  A    between atoms: O_8  and  C_9
REMARK    9  A    between atoms: C_9  and  C_11
REMARK   10  A    between atoms: C_12  and  C_13
REMARK   11  A    between atoms: C_16  and  O_17
REMARK   12  A    between atoms: O_17  and  C_18
REMARK                            x       y       z     vdW  Elec       q    Type
REMARK                         _______ _______ _______ _____ _____    ______ ____
ROOT
ATOM      1  C   UNL     1       7.912  -7.565  -2.608  0.00  0.00    +0.000 C 
ATOM      2  O   UNL     1       8.435  -8.357  -3.357  0.00  0.00    +0.000 OA
ENDROOT
BRANCH   1   3
ATOM      3  C   UNL     1       6.362  -7.350  -2.585  0.00  0.00    +0.000 C 
ATOM      4  C   UNL     1       5.565  -8.396  -2.266  0.00  0.00    +0.000 C 
BRANCH   4   5
ATOM      5  C   UNL     1       4.128  -8.306  -2.318  0.00  0.00    +0.000 A 
ATOM      6  C   UNL     1       3.501  -7.278  -2.986  0.00  0.00    +0.000 A 
ATOM      7  C   UNL     1       2.160  -7.199  -3.093  0.00  0.00    +0.000 A 
ATOM      8  C   UNL     1       1.401  -8.185  -2.505  0.00  0.00    +0.000 A 
ATOM      9  C   UNL     1       1.985  -9.196  -1.807  0.00  0.00    +0.000 A 
ATOM     10  C   UNL     1       3.360  -9.259  -1.722  0.00  0.00    +0.000 A 
BRANCH   8  11
ATOM     11  O   UNL     1       0.051  -8.161  -2.532  0.00  0.00    +0.000 OA
ATOM     12  C   UNL     1      -0.574  -9.298  -3.102  0.00  0.00    +0.000 C 
ENDBRANCH   8  11
ENDBRANCH   4   5
ENDBRANCH   1   3
BRANCH   1  13
ATOM     13  O   UNL     1       8.673  -6.890  -1.855  0.00  0.00    +0.000 OA
BRANCH  13  14
ATOM     14  C   UNL     1       8.187  -6.579  -0.511  0.00  0.00    +0.000 C 
BRANCH  14  15
ATOM     15  C   UNL     1       8.350  -5.150  -0.280  0.00  0.00    +0.000 C 
ATOM     16  C   UNL     1       9.783  -4.718  -0.197  0.00  0.00    +0.000 C 
ENDBRANCH  14  15
BRANCH  14  17
ATOM     17  C   UNL     1       8.952  -7.368   0.535  0.00  0.00    +0.000 C 
BRANCH  17  18
ATOM     18  C   UNL     1       7.922  -7.935   1.536  0.00  0.00    +0.000 C 
BRANCH  18  20
ATOM     19  C   UNL     1       5.609  -8.800   1.543  0.00  0.00    +0.000 C 
ATOM     20  C   UNL     1       7.016  -8.957   0.926  0.00  0.00    +0.000 C 
ENDBRANCH  18  20
ENDBRANCH  17  18
ENDBRANCH  14  17
ENDBRANCH  13  14
ENDBRANCH   1  13
TORSDOF 9
ENDMDL
MODEL 2
REMARK VINA RESULT:      -4.0      1.680      3.283
REMARK  Name = bg33_3_ligand
REMARK  12 active torsions:
REMARK  status: ('A' for Active; 'I' for Inactive)
REMARK    1  A    between atoms: C_1  and  C_2
REMARK    2  A    between atoms: C_2  and  C_3
REMARK    3  A    between atoms: C_3  and  C_4
REMARK    4  A    between atoms: C_4  and  C_5
REMARK    5  A    between atoms: C_5  and  C_6
REMARK    6  A    between atoms: C_5  and  O_8
REMARK    7  A    between atoms: C_6  and  C_7
REMARK    8  A    between atoms: O_8  and  C_9
REMARK    9  A    between atoms: C_9  and  C_11
REMARK   10  A    between atoms: C_12  and  C_13
REMARK   11  A    between atoms: C_16  and  O_17
REMARK   12  A    between atoms: O_17  and  C_18
REMARK                            x       y       z     vdW  Elec       q    Type
REMARK                         _______ _______ _______ _____ _____    ______ ____
ROOT
ATOM      1  C   UNL     1       6.170  -9.568  -0.693  0.00  0.00    +0.000 C 
ATOM      2  O   UNL     1       6.753 -10.573  -0.360  0.00  0.00    +0.000 OA
ENDROOT
BRANCH   1   3
ATOM      3  C   UNL     1       4.879  -9.619  -1.577  0.00  0.00    +0.000 C 
ATOM      4  C   UNL     1       3.716  -9.165  -1.056  0.00  0.00    +0.000 C 
BRANCH   4   5
ATOM      5  C   UNL     1       2.468  -9.268  -1.768  0.00  0.00    +0.000 A 
ATOM      6  C   UNL     1       1.955 -10.492  -2.136  0.00  0.00    +0.000 A 
ATOM      7  C   UNL     1       0.765 -10.618  -2.757  0.00  0.00    +0.000 A 
ATOM      8  C   UNL     1       0.049  -9.475  -3.030  0.00  0.00    +0.000 A 
ATOM      9  C   UNL     1       0.541  -8.247  -2.712  0.00  0.00    +0.000 A 
ATOM     10  C   UNL     1       1.755  -8.146  -2.068  0.00  0.00    +0.000 A 
BRANCH   8  11
ATOM     11  O   UNL     1      -1.133  -9.510  -3.683  0.00  0.00    +0.000 OA
ATOM     12  C   UNL     1      -1.054  -9.502  -5.098  0.00  0.00    +0.000 C 
ENDBRANCH   8  11
ENDBRANCH   4   5
ENDBRANCH   1   3
BRANCH   1  13
ATOM     13  O   UNL     1       6.660  -8.463  -0.321  0.00  0.00    +0.000 OA
BRANCH  13  14
ATOM     14  C   UNL     1       7.691  -8.498   0.716  0.00  0.00    +0.000 C 
BRANCH  14  15
ATOM     15  C   UNL     1       7.079  -8.137   1.988  0.00  0.00    +0.000 C 
ATOM     16  C   UNL     1       7.859  -8.606   3.180  0.00  0.00    +0.000 C 
ENDBRANCH  14  15
BRANCH  14  17
ATOM     17  C   UNL     1       8.818  -7.536   0.387  0.00  0.00    +0.000 C 
BRANCH  17  18
ATOM     18  C   UNL     1       8.296  -6.557  -0.687  0.00  0.00    +0.000 C 
BRANCH  18  20
ATOM     19  C   UNL     1       9.818  -4.675  -0.201  0.00  0.00    +0.000 C 
ATOM     20  C   UNL     1       8.343  -5.128  -0.246  0.00  0.00    +0.000 C 
ENDBRANCH  18  20
ENDBRANCH  17  18
ENDBRANCH  14  17
ENDBRANCH  13  14
ENDBRANCH   1  13
TORSDOF 9
ENDMDL
MODEL 3
REMARK VINA RESULT:      -3.9      1.047      1.507
REMARK  Name = bg33_3_ligand
REMARK  12 active torsions:
REMARK  status: ('A' for Active; 'I' for Inactive)
REMARK    1  A    between atoms: C_1  and  C_2
REMARK    2  A    between atoms: C_2  and  C_3
REMARK    3  A    between atoms: C_3  and  C_4
REMARK    4  A    between atoms: C_4  and  C_5
REMARK    5  A    between atoms: C_5  and  C_6
REMARK    6  A    between atoms: C_5  and  O_8
REMARK    7  A    between atoms: C_6  and  C_7
REMARK    8  A    between atoms: O_8  and  C_9
REMARK    9  A    between atoms: C_9  and  C_11
REMARK   10  A    between atoms: C_12  and  C_13
REMARK   11  A    between atoms: C_16  and  O_17
REMARK   12  A    between atoms: O_17  and  C_18
REMARK                            x       y       z     vdW  Elec       q    Type
REMARK                         _______ _______ _______ _____ _____    ______ ____
ROOT
ATOM      1  C   UNL     1       8.267  -8.968  -1.884  0.00  0.00    +0.000 C 
ATOM      2  O   UNL     1       8.674  -9.950  -2.459  0.00  0.00    +0.000 OA
ENDROOT
BRANCH   1   3
ATOM      3  C   UNL     1       6.767  -8.527  -1.965  0.00  0.00    +0.000 C 
ATOM      4  C   UNL     1       5.804  -9.470  -1.847  0.00  0.00    +0.000 C 
BRANCH   4   5
ATOM      5  C   UNL     1       4.407  -9.161  -2.008  0.00  0.00    +0.000 A 
ATOM      6  C   UNL     1       3.444 -10.142  -1.925  0.00  0.00    +0.000 A 
ATOM      7  C   UNL     1       2.127  -9.871  -2.021  0.00  0.00    +0.000 A 
ATOM      8  C   UNL     1       1.744  -8.563  -2.212  0.00  0.00    +0.000 A 
ATOM      9  C   UNL     1       2.669  -7.573  -2.334  0.00  0.00    +0.000 A 
ATOM     10  C   UNL     1       4.009  -7.875  -2.222  0.00  0.00    +0.000 A 
BRANCH   8  11
ATOM     11  O   UNL     1       0.448  -8.211  -2.356  0.00  0.00    +0.000 OA
ATOM     12  C   UNL     1      -0.358  -9.118  -3.088  0.00  0.00    +0.000 C 
ENDBRANCH   8  11
ENDBRANCH   4   5
ENDBRANCH   1   3
BRANCH   1  13
ATOM     13  O   UNL     1       9.109  -8.289  -1.230  0.00  0.00    +0.000 OA
BRANCH  13  14
ATOM     14  C   UNL     1       8.615  -7.525  -0.084  0.00  0.00    +0.000 C 
BRANCH  14  15
ATOM     15  C   UNL     1       9.161  -6.176  -0.158  0.00  0.00    +0.000 C 
ATOM     16  C   UNL     1       8.127  -5.129  -0.444  0.00  0.00    +0.000 C 
ENDBRANCH  14  15
BRANCH  14  17
ATOM     17  C   UNL     1       9.026  -8.184   1.220  0.00  0.00    +0.000 C 
BRANCH  17  18
ATOM     18  C   UNL     1       7.770  -8.266   2.116  0.00  0.00    +0.000 C 
BRANCH  18  20
ATOM     19  C   UNL     1       5.415  -8.810   1.613  0.00  0.00    +0.000 C 
ATOM     20  C   UNL     1       6.847  -9.377   1.726  0.00  0.00    +0.000 C 
ENDBRANCH  18  20
ENDBRANCH  17  18
ENDBRANCH  14  17
ENDBRANCH  13  14
ENDBRANCH   1  13
TORSDOF 9
ENDMDL
MODEL 4
REMARK VINA RESULT:      -3.8      1.785      3.476
REMARK  Name = bg33_3_ligand
REMARK  12 active torsions:
REMARK  status: ('A' for Active; 'I' for Inactive)
REMARK    1  A    between atoms: C_1  and  C_2
REMARK    2  A    between atoms: C_2  and  C_3
REMARK    3  A    between atoms: C_3  and  C_4
REMARK    4  A    between atoms: C_4  and  C_5
REMARK    5  A    between atoms: C_5  and  C_6
REMARK    6  A    between atoms: C_5  and  O_8
REMARK    7  A    between atoms: C_6  and  C_7
REMARK    8  A    between atoms: O_8  and  C_9
REMARK    9  A    between atoms: C_9  and  C_11
REMARK   10  A    between atoms: C_12  and  C_13
REMARK   11  A    between atoms: C_16  and  O_17
REMARK   12  A    between atoms: O_17  and  C_18
REMARK                            x       y       z     vdW  Elec       q    Type
REMARK                         _______ _______ _______ _____ _____    ______ ____
ROOT
ATOM      1  C   UNL     1       5.388  -9.257  -0.277  0.00  0.00    +0.000 C 
ATOM      2  O   UNL     1       5.781  -9.221   0.865  0.00  0.00    +0.000 OA
ENDROOT
BRANCH   1   3
ATOM      3  C   UNL     1       3.861  -9.258  -0.624  0.00  0.00    +0.000 C 
ATOM      4  C   UNL     1       3.463  -9.785  -1.805  0.00  0.00    +0.000 C 
BRANCH   4   5
ATOM      5  C   UNL     1       2.091  -9.735  -2.240  0.00  0.00    +0.000 A 
ATOM      6  C   UNL     1       1.355 -10.887  -2.410  0.00  0.00    +0.000 A 
ATOM      7  C   UNL     1       0.054 -10.866  -2.766  0.00  0.00    +0.000 A 
ATOM      8  C   UNL     1      -0.545  -9.644  -2.969  0.00  0.00    +0.000 A 
ATOM      9  C   UNL     1       0.161  -8.488  -2.845  0.00  0.00    +0.000 A 
ATOM     10  C   UNL     1       1.486  -8.536  -2.469  0.00  0.00    +0.000 A 
BRANCH   8  11
ATOM     11  O   UNL     1      -1.832  -9.535  -3.365  0.00  0.00    +0.000 OA
ATOM     12  C   UNL     1      -2.084  -9.840  -4.725  0.00  0.00    +0.000 C 
ENDBRANCH   8  11
ENDBRANCH   4   5
ENDBRANCH   1   3
BRANCH   1  13
ATOM     13  O   UNL     1       6.262  -9.321  -1.190  0.00  0.00    +0.000 OA
BRANCH  13  14
ATOM     14  C   UNL     1       6.896  -8.069  -1.604  0.00  0.00    +0.000 C 
BRANCH  14  15
ATOM     15  C   UNL     1       6.479  -7.768  -2.967  0.00  0.00    +0.000 C 
ATOM     16  C   UNL     1       5.506  -6.632  -3.056  0.00  0.00    +0.000 C 
ENDBRANCH  14  15
BRANCH  14  17
ATOM     17  C   UNL     1       8.408  -8.183  -1.533  0.00  0.00    +0.000 C 
BRANCH  17  18
ATOM     18  C   UNL     1       8.859  -7.567  -0.190  0.00  0.00    +0.000 C 
BRANCH  18  20
ATOM     19  C   UNL     1       9.061  -5.107  -0.238  0.00  0.00    +0.000 C 
ATOM     20  C   UNL     1       8.146  -6.293   0.136  0.00  0.00    +0.000 C 
ENDBRANCH  18  20
ENDBRANCH  17  18
ENDBRANCH  14  17
ENDBRANCH  13  14
ENDBRANCH   1  13
TORSDOF 9
ENDMDL
MODEL 5
REMARK VINA RESULT:      -3.8      3.965      5.700
REMARK  Name = bg33_3_ligand
REMARK  12 active torsions:
REMARK  status: ('A' for Active; 'I' for Inactive)
REMARK    1  A    between atoms: C_1  and  C_2
REMARK    2  A    between atoms: C_2  and  C_3
REMARK    3  A    between atoms: C_3  and  C_4
REMARK    4  A    between atoms: C_4  and  C_5
REMARK    5  A    between atoms: C_5  and  C_6
REMARK    6  A    between atoms: C_5  and  O_8
REMARK    7  A    between atoms: C_6  and  C_7
REMARK    8  A    between atoms: O_8  and  C_9
REMARK    9  A    between atoms: C_9  and  C_11
REMARK   10  A    between atoms: C_12  and  C_13
REMARK   11  A    between atoms: C_16  and  O_17
REMARK   12  A    between atoms: O_17  and  C_18
REMARK                            x       y       z     vdW  Elec       q    Type
REMARK                         _______ _______ _______ _____ _____    ______ ____
ROOT
ATOM      1  C   UNL     1       6.566  -4.747  -3.650  0.00  0.00    +0.000 C 
ATOM      2  O   UNL     1       7.525  -4.872  -2.924  0.00  0.00    +0.000 OA
ENDROOT
BRANCH   1   3
ATOM      3  C   UNL     1       5.146  -5.263  -3.237  0.00  0.00    +0.000 C 
ATOM      4  C   UNL     1       4.820  -6.549  -3.498  0.00  0.00    +0.000 C 
BRANCH   4   5
ATOM      5  C   UNL     1       3.503  -7.072  -3.239  0.00  0.00    +0.000 A 
ATOM      6  C   UNL     1       3.303  -8.076  -2.317  0.00  0.00    +0.000 A 
ATOM      7  C   UNL     1       2.075  -8.546  -2.020  0.00  0.00    +0.000 A 
ATOM      8  C   UNL     1       0.993  -7.998  -2.669  0.00  0.00    +0.000 A 
ATOM      9  C   UNL     1       1.156  -7.030  -3.610  0.00  0.00    +0.000 A 
ATOM     10  C   UNL     1       2.422  -6.559  -3.889  0.00  0.00    +0.000 A 
BRANCH   8  11
ATOM     11  O   UNL     1      -0.267  -8.439  -2.457  0.00  0.00    +0.000 OA
ATOM     12  C   UNL     1      -0.751  -9.389  -3.390  0.00  0.00    +0.000 C 
ENDBRANCH   8  11
ENDBRANCH   4   5
ENDBRANCH   1   3
BRANCH   1  13
ATOM     13  O   UNL     1       6.758  -4.205  -4.776  0.00  0.00    +0.000 OA
BRANCH  13  14
ATOM     14  C   UNL     1       5.740  -3.271  -5.256  0.00  0.00    +0.000 C 
BRANCH  14  15
ATOM     15  C   UNL     1       5.381  -3.638  -6.619  0.00  0.00    +0.000 C 
ATOM     16  C   UNL     1       4.127  -4.455  -6.707  0.00  0.00    +0.000 C 
ENDBRANCH  14  15
BRANCH  14  17
ATOM     17  C   UNL     1       6.256  -1.844  -5.219  0.00  0.00    +0.000 C 
BRANCH  17  18
ATOM     18  C   UNL     1       5.087  -0.915  -5.614  0.00  0.00    +0.000 C 
BRANCH  18  20
ATOM     19  C   UNL     1       5.487  -0.083  -3.325  0.00  0.00    +0.000 C 
ATOM     20  C   UNL     1       4.974   0.288  -4.733  0.00  0.00    +0.000 C 
ENDBRANCH  18  20
ENDBRANCH  17  18
ENDBRANCH  14  17
ENDBRANCH  13  14
ENDBRANCH   1  13
TORSDOF 9
ENDMDL
MODEL 6
REMARK VINA RESULT:      -3.8      1.606      1.947
REMARK  Name = bg33_3_ligand
REMARK  12 active torsions:
REMARK  status: ('A' for Active; 'I' for Inactive)
REMARK    1  A    between atoms: C_1  and  C_2
REMARK    2  A    between atoms: C_2  and  C_3
REMARK    3  A    between atoms: C_3  and  C_4
REMARK    4  A    between atoms: C_4  and  C_5
REMARK    5  A    between atoms: C_5  and  C_6
REMARK    6  A    between atoms: C_5  and  O_8
REMARK    7  A    between atoms: C_6  and  C_7
REMARK    8  A    between atoms: O_8  and  C_9
REMARK    9  A    between atoms: C_9  and  C_11
REMARK   10  A    between atoms: C_12  and  C_13
REMARK   11  A    between atoms: C_16  and  O_17
REMARK   12  A    between atoms: O_17  and  C_18
REMARK                            x       y       z     vdW  Elec       q    Type
REMARK                         _______ _______ _______ _____ _____    ______ ____
ROOT
ATOM      1  C   UNL     1       6.992  -4.944  -3.373  0.00  0.00    +0.000 C 
ATOM      2  O   UNL     1       7.318  -4.725  -4.516  0.00  0.00    +0.000 OA
ENDROOT
BRANCH   1   3
ATOM      3  C   UNL     1       5.523  -5.331  -2.993  0.00  0.00    +0.000 C 
ATOM      4  C   UNL     1       5.067  -6.560  -3.327  0.00  0.00    +0.000 C 
BRANCH   4   5
ATOM      5  C   UNL     1       3.701  -6.956  -3.100  0.00  0.00    +0.000 A 
ATOM      6  C   UNL     1       2.656  -6.284  -3.695  0.00  0.00    +0.000 A 
ATOM      7  C   UNL     1       1.372  -6.666  -3.540  0.00  0.00    +0.000 A 
ATOM      8  C   UNL     1       1.110  -7.765  -2.755  0.00  0.00    +0.000 A 
ATOM      9  C   UNL     1       2.114  -8.431  -2.125  0.00  0.00    +0.000 A 
ATOM     10  C   UNL     1       3.420  -8.027  -2.307  0.00  0.00    +0.000 A 
BRANCH   8  11
ATOM     11  O   UNL     1      -0.150  -8.190  -2.517  0.00  0.00    +0.000 OA
ATOM     12  C   UNL     1      -0.566  -9.324  -3.259  0.00  0.00    +0.000 C 
ENDBRANCH   8  11
ENDBRANCH   4   5
ENDBRANCH   1   3
BRANCH   1  13
ATOM     13  O   UNL     1       7.883  -4.823  -2.483  0.00  0.00    +0.000 OA
BRANCH  13  14
ATOM     14  C   UNL     1       7.871  -5.786  -1.382  0.00  0.00    +0.000 C 
BRANCH  14  15
ATOM     15  C   UNL     1       8.450  -5.151  -0.206  0.00  0.00    +0.000 C 
ATOM     16  C   UNL     1       9.843  -4.642  -0.427  0.00  0.00    +0.000 C 
ENDBRANCH  14  15
BRANCH  14  17
ATOM     17  C   UNL     1       8.660  -7.031  -1.747  0.00  0.00    +0.000 C 
BRANCH  17  18
ATOM     18  C   UNL     1       8.273  -8.138  -0.742  0.00  0.00    +0.000 C 
BRANCH  18  20
ATOM     19  C   UNL     1       6.677  -9.787  -1.652  0.00  0.00    +0.000 C 
ATOM     20  C   UNL     1       6.824  -8.504  -0.807  0.00  0.00    +0.000 C 
ENDBRANCH  18  20
ENDBRANCH  17  18
ENDBRANCH  14  17
ENDBRANCH  13  14
ENDBRANCH   1  13
TORSDOF 9
ENDMDL
MODEL 7
REMARK VINA RESULT:      -3.7      1.976      7.234
REMARK  Name = bg33_3_ligand
REMARK  12 active torsions:
REMARK  status: ('A' for Active; 'I' for Inactive)
REMARK    1  A    between atoms: C_1  and  C_2
REMARK    2  A    between atoms: C_2  and  C_3
REMARK    3  A    between atoms: C_3  and  C_4
REMARK    4  A    between atoms: C_4  and  C_5
REMARK    5  A    between atoms: C_5  and  C_6
REMARK    6  A    between atoms: C_5  and  O_8
REMARK    7  A    between atoms: C_6  and  C_7
REMARK    8  A    between atoms: O_8  and  C_9
REMARK    9  A    between atoms: C_9  and  C_11
REMARK   10  A    between atoms: C_12  and  C_13
REMARK   11  A    between atoms: C_16  and  O_17
REMARK   12  A    between atoms: O_17  and  C_18
REMARK                            x       y       z     vdW  Elec       q    Type
REMARK                         _______ _______ _______ _____ _____    ______ ____
ROOT
ATOM      1  C   UNL     1       1.290  -6.662  -3.587  0.00  0.00    +0.000 C 
ATOM      2  O   UNL     1       0.857  -6.159  -4.596  0.00  0.00    +0.000 OA
ENDROOT
BRANCH   1   3
ATOM      3  C   UNL     1       2.667  -6.235  -2.977  0.00  0.00    +0.000 C 
ATOM      4  C   UNL     1       3.785  -6.388  -3.723  0.00  0.00    +0.000 C 
BRANCH   4   5
ATOM      5  C   UNL     1       5.098  -6.111  -3.200  0.00  0.00    +0.000 A 
ATOM      6  C   UNL     1       5.534  -4.817  -3.016  0.00  0.00    +0.000 A 
ATOM      7  C   UNL     1       6.738  -4.532  -2.480  0.00  0.00    +0.000 A 
ATOM      8  C   UNL     1       7.551  -5.578  -2.112  0.00  0.00    +0.000 A 
ATOM      9  C   UNL     1       7.167  -6.868  -2.311  0.00  0.00    +0.000 A 
ATOM     10  C   UNL     1       5.927  -7.134  -2.852  0.00  0.00    +0.000 A 
BRANCH   8  11
ATOM     11  O   UNL     1       8.787  -5.380  -1.604  0.00  0.00    +0.000 OA
ATOM     12  C   UNL     1       8.842  -5.080  -0.220  0.00  0.00    +0.000 C 
ENDBRANCH   8  11
ENDBRANCH   4   5
ENDBRANCH   1   3
BRANCH   1  13
ATOM     13  O   UNL     1       0.597  -7.574  -3.050  0.00  0.00    +0.000 OA
BRANCH  13  14
ATOM     14  C   UNL     1       0.752  -8.933  -3.571  0.00  0.00    +0.000 C 
BRANCH  14  15
ATOM     15  C   UNL     1      -0.516  -9.352  -4.153  0.00  0.00    +0.000 C 
ATOM     16  C   UNL     1      -1.545  -9.735  -3.133  0.00  0.00    +0.000 C 
ENDBRANCH  14  15
BRANCH  14  17
ATOM     17  C   UNL     1       1.161  -9.889  -2.465  0.00  0.00    +0.000 C 
BRANCH  17  18
ATOM     18  C   UNL     1       2.458 -10.595  -2.918  0.00  0.00    +0.000 C 
BRANCH  18  20
ATOM     19  C   UNL     1       3.393  -9.359  -0.997  0.00  0.00    +0.000 C 
ATOM     20  C   UNL     1       3.695  -9.935  -2.397  0.00  0.00    +0.000 C 
ENDBRANCH  18  20
ENDBRANCH  17  18
ENDBRANCH  14  17
ENDBRANCH  13  14
ENDBRANCH   1  13
TORSDOF 9
ENDMDL
MODEL 8
REMARK VINA RESULT:      -3.7      3.683      5.723
REMARK  Name = bg33_3_ligand
REMARK  12 active torsions:
REMARK  status: ('A' for Active; 'I' for Inactive)
REMARK    1  A    between atoms: C_1  and  C_2
REMARK    2  A    between atoms: C_2  and  C_3
REMARK    3  A    between atoms: C_3  and  C_4
REMARK    4  A    between atoms: C_4  and  C_5
REMARK    5  A    between atoms: C_5  and  C_6
REMARK    6  A    between atoms: C_5  and  O_8
REMARK    7  A    between atoms: C_6  and  C_7
REMARK    8  A    between atoms: O_8  and  C_9
REMARK    9  A    between atoms: C_9  and  C_11
REMARK   10  A    between atoms: C_12  and  C_13
REMARK   11  A    between atoms: C_16  and  O_17
REMARK   12  A    between atoms: O_17  and  C_18
REMARK                            x       y       z     vdW  Elec       q    Type
REMARK                         _______ _______ _______ _____ _____    ______ ____
ROOT
ATOM      1  C   UNL     1       4.065  -9.142  -1.316  0.00  0.00    +0.000 C 
ATOM      2  O   UNL     1       4.720  -9.650  -0.436  0.00  0.00    +0.000 OA
ENDROOT
BRANCH   1   3
ATOM      3  C   UNL     1       2.559  -9.506  -1.539  0.00  0.00    +0.000 C 
ATOM      4  C   UNL     1       2.257 -10.665  -2.168  0.00  0.00    +0.000 C 
BRANCH   4   5
ATOM      5  C   UNL     1       0.901 -11.025  -2.498  0.00  0.00    +0.000 A 
ATOM      6  C   UNL     1       0.466 -12.329  -2.403  0.00  0.00    +0.000 A 
ATOM      7  C   UNL     1      -0.810 -12.683  -2.656  0.00  0.00    +0.000 A 
ATOM      8  C   UNL     1      -1.698 -11.699  -3.025  0.00  0.00    +0.000 A 
ATOM      9  C   UNL     1      -1.295 -10.407  -3.163  0.00  0.00    +0.000 A 
ATOM     10  C   UNL     1       0.013 -10.069  -2.888  0.00  0.00    +0.000 A 
BRANCH   8  11
ATOM     11  O   UNL     1      -2.984 -11.975  -3.334  0.00  0.00    +0.000 OA
ATOM     12  C   UNL     1      -3.703 -12.717  -2.364  0.00  0.00    +0.000 C 
ENDBRANCH   8  11
ENDBRANCH   4   5
ENDBRANCH   1   3
BRANCH   1  13
ATOM     13  O   UNL     1       4.653  -8.317  -2.073  0.00  0.00    +0.000 OA
BRANCH  13  14
ATOM     14  C   UNL     1       3.911  -7.819  -3.232  0.00  0.00    +0.000 C 
BRANCH  14  15
ATOM     15  C   UNL     1       4.634  -8.195  -4.440  0.00  0.00    +0.000 C 
ATOM     16  C   UNL     1       3.818  -9.016  -5.393  0.00  0.00    +0.000 C 
ENDBRANCH  14  15
BRANCH  14  17
ATOM     17  C   UNL     1       3.756  -6.311  -3.165  0.00  0.00    +0.000 C 
BRANCH  17  18
ATOM     18  C   UNL     1       2.338  -6.013  -2.630  0.00  0.00    +0.000 C 
BRANCH  18  20
ATOM     19  C   UNL     1       1.246  -5.810  -4.834  0.00  0.00    +0.000 C 
ATOM     20  C   UNL     1       1.257  -6.578  -3.495  0.00  0.00    +0.000 C 
ENDBRANCH  18  20
ENDBRANCH  17  18
ENDBRANCH  14  17
ENDBRANCH  13  14
ENDBRANCH   1  13
TORSDOF 9
ENDMDL
MODEL 9
REMARK VINA RESULT:      -3.7      2.467      4.203
REMARK  Name = bg33_3_ligand
REMARK  12 active torsions:
REMARK  status: ('A' for Active; 'I' for Inactive)
REMARK    1  A    between atoms: C_1  and  C_2
REMARK    2  A    between atoms: C_2  and  C_3
REMARK    3  A    between atoms: C_3  and  C_4
REMARK    4  A    between atoms: C_4  and  C_5
REMARK    5  A    between atoms: C_5  and  C_6
REMARK    6  A    between atoms: C_5  and  O_8
REMARK    7  A    between atoms: C_6  and  C_7
REMARK    8  A    between atoms: O_8  and  C_9
REMARK    9  A    between atoms: C_9  and  C_11
REMARK   10  A    between atoms: C_12  and  C_13
REMARK   11  A    between atoms: C_16  and  O_17
REMARK   12  A    between atoms: O_17  and  C_18
REMARK                            x       y       z     vdW  Elec       q    Type
REMARK                         _______ _______ _______ _____ _____    ______ ____
ROOT
ATOM      1  C   UNL     1       5.531  -9.119  -1.042  0.00  0.00    +0.000 C 
ATOM      2  O   UNL     1       5.973 -10.037  -0.392  0.00  0.00    +0.000 OA
ENDROOT
BRANCH   1   3
ATOM      3  C   UNL     1       3.995  -8.951  -1.293  0.00  0.00    +0.000 C 
ATOM      4  C   UNL     1       3.322  -9.951  -1.906  0.00  0.00    +0.000 C 
BRANCH   4   5
ATOM      5  C   UNL     1       1.931  -9.832  -2.260  0.00  0.00    +0.000 A 
ATOM      6  C   UNL     1       1.341  -8.600  -2.432  0.00  0.00    +0.000 A 
ATOM      7  C   UNL     1       0.055  -8.462  -2.813  0.00  0.00    +0.000 A 
ATOM      8  C   UNL     1      -0.684  -9.602  -3.031  0.00  0.00    +0.000 A 
ATOM      9  C   UNL     1      -0.145 -10.836  -2.836  0.00  0.00    +0.000 A 
ATOM     10  C   UNL     1       1.176 -10.949  -2.457  0.00  0.00    +0.000 A 
BRANCH   8  11
ATOM     11  O   UNL     1      -1.989  -9.553  -3.377  0.00  0.00    +0.000 OA
ATOM     12  C   UNL     1      -2.292  -9.971  -4.696  0.00  0.00    +0.000 C 
ENDBRANCH   8  11
ENDBRANCH   4   5
ENDBRANCH   1   3
BRANCH   1  13
ATOM     13  O   UNL     1       6.364  -8.307  -1.539  0.00  0.00    +0.000 OA
BRANCH  13  14
ATOM     14  C   UNL     1       6.063  -7.761  -2.863  0.00  0.00    +0.000 C 
BRANCH  14  15
ATOM     15  C   UNL     1       6.913  -8.426  -3.841  0.00  0.00    +0.000 C 
ATOM     16  C   UNL     1       6.159  -9.330  -4.770  0.00  0.00    +0.000 C 
ENDBRANCH  14  15
BRANCH  14  17
ATOM     17  C   UNL     1       6.305  -6.262  -2.894  0.00  0.00    +0.000 C 
BRANCH  17  18
ATOM     18  C   UNL     1       5.281  -5.647  -3.873  0.00  0.00    +0.000 C 
BRANCH  18  20
ATOM     19  C   UNL     1       3.192  -6.511  -4.865  0.00  0.00    +0.000 C 
ATOM     20  C   UNL     1       3.870  -6.034  -3.562  0.00  0.00    +0.000 C 
ENDBRANCH  18  20
ENDBRANCH  17  18
ENDBRANCH  14  17
ENDBRANCH  13  14
ENDBRANCH   1  13
TORSDOF 9
ENDMDL
