REMARK  Name = ox1_esm1_f8_ligand
REMARK  5 active torsions:
REMARK  status: ('A' for Active; 'I' for Inactive)
REMARK    1  A    between atoms: C_1  and  O_2
REMARK    2  A    between atoms: O_2  and  C_3
REMARK    3  A    between atoms: C_6  and  C_7
REMARK    4  A    between atoms: C_7  and  C_9
REMARK    5  A    between atoms: C_15  and  O_16
REMARK                            x       y       z     vdW  Elec       q    Type
REMARK                         _______ _______ _______ _____ _____    ______ ____
ROOT
ATOM      1  C   UNL     1       4.503   1.444   3.670  0.00  0.00    +0.000 A 
ATOM      2  C   UNL     1       3.659   1.510   2.561  0.00  0.00    +0.000 A 
ATOM      3  C   UNL     1       4.129   2.009   1.355  0.00  0.00    +0.000 A 
ATOM      4  C   UNL     1       5.439   2.438   1.226  0.00  0.00    +0.000 A 
ATOM      5  C   UNL     1       6.297   2.383   2.343  0.00  0.00    +0.000 A 
ATOM      6  C   UNL     1       5.812   1.884   3.551  0.00  0.00    +0.000 A 
ENDROOT
BRANCH   1   8
ATOM      7  C   UNL     1       4.803   0.849   6.010  0.00  0.00    +0.000 C 
ATOM      8  O   UNL     1       3.998   0.936   4.831  0.00  0.00    +0.000 OA
ENDBRANCH   1   8
BRANCH   4   9
ATOM      9  C   UNL     1       5.942   2.962  -0.085  0.00  0.00    +0.000 C 
ATOM     10  O   UNL     1       7.048   3.493  -0.137  0.00  0.00    +0.000 OA
BRANCH   9  11
ATOM     11  C   UNL     1       5.106   2.869  -1.319  0.00  0.00    +0.000 A 
ATOM     12  C   UNL     1       4.771   3.974  -2.015  0.00  0.00    +0.000 A 
ATOM     13  C   UNL     1       4.032   3.961  -3.184  0.00  0.00    +0.000 A 
ATOM     14  C   UNL     1       3.569   2.758  -3.659  0.00  0.00    +0.000 A 
ATOM     15  C   UNL     1       3.879   1.597  -2.965  0.00  0.00    +0.000 A 
ATOM     16  C   UNL     1       4.641   1.665  -1.798  0.00  0.00    +0.000 A 
ENDBRANCH   9  11
ENDBRANCH   4   9
BRANCH   5  17
ATOM     17  O   UNL     1       7.584   2.822   2.224  0.00  0.00    +0.000 OA
ATOM     18  H   UNL     1       8.193   2.787   3.003  0.00  0.00    +0.000 HD
ENDBRANCH   5  17
TORSDOF 4
