REMARK  Name = /Users/cafierom/python_mac/peptidebuilder/runs/oxybenzone/dock/ox1_esm1_f8_o3cof/ox1_esm1_f8_o3cof_protein.pdb
REMARK                            x       y       z     vdW  Elec       q    Type
REMARK                         _______ _______ _______ _____ _____    ______ ____
ATOM      1  N   PHE A   1      -1.485  12.689   1.976  0.00  0.00    +0.000 NA
ATOM      2  CA  PHE A   1      -1.995  11.326   1.770  0.00  0.00    +0.000 C 
ATOM      3  C   PHE A   1      -2.209  10.627   3.099  0.00  0.00    +0.000 C 
ATOM      4  O   PHE A   1      -1.318  10.593   3.932  0.00  0.00    +0.000 OA
ATOM      5  CB  PHE A   1      -0.978  10.499   1.000  0.00  0.00    +0.000 C 
ATOM      6  CG  PHE A   1      -0.724  11.058  -0.365  0.00  0.00    +0.000 A 
ATOM      7  CD1 PHE A   1      -1.631  10.851  -1.378  0.00  0.00    +0.000 A 
ATOM      8  CD2 PHE A   1       0.422  11.778  -0.630  0.00  0.00    +0.000 A 
ATOM      9  CE1 PHE A   1      -1.396  11.360  -2.631  0.00  0.00    +0.000 A 
ATOM     10  CE2 PHE A   1       0.661  12.289  -1.880  0.00  0.00    +0.000 A 
ATOM     11  CZ  PHE A   1      -0.260  12.087  -2.885  0.00  0.00    +0.000 A 
ATOM     12  N   PRO A   2      -3.369  10.060   3.293  0.00  0.00    +0.000 N 
ATOM     13  CA  PRO A   2      -3.636   9.272   4.497  0.00  0.00    +0.000 C 
ATOM     14  C   PRO A   2      -2.795   8.002   4.386  0.00  0.00    +0.000 C 
ATOM     15  O   PRO A   2      -3.154   7.081   3.690  0.00  0.00    +0.000 OA
ATOM     16  CB  PRO A   2      -5.136   8.969   4.391  0.00  0.00    +0.000 C 
ATOM     17  CG  PRO A   2      -5.528   9.214   2.975  0.00  0.00    +0.000 C 
ATOM     18  CD  PRO A   2      -4.523  10.178   2.410  0.00  0.00    +0.000 C 
ATOM     19  N   ARG A   3      -1.671   7.990   5.053  0.00  0.00    +0.000 N 
ATOM     20  CA  ARG A   3      -0.753   6.842   4.987  0.00  0.00    +0.000 C 
ATOM     21  C   ARG A   3      -1.542   5.521   5.039  0.00  0.00    +0.000 C 
ATOM     22  O   ARG A   3      -1.172   4.543   4.415  0.00  0.00    +0.000 OA
ATOM     23  CB  ARG A   3       0.204   6.941   6.173  0.00  0.00    +0.000 C 
ATOM     24  CG  ARG A   3       1.377   5.992   6.046  0.00  0.00    +0.000 C 
ATOM     25  CD  ARG A   3       1.073   4.764   6.867  0.00  0.00    +0.000 C 
ATOM     26  NE  ARG A   3       2.254   4.271   7.550  0.00  0.00    +0.000 NA
ATOM     27  CZ  ARG A   3       2.175   3.298   8.443  0.00  0.00    +0.000 C 
ATOM     28  NH1 ARG A   3       1.026   2.722   8.711  0.00  0.00    +0.000 N 
ATOM     29  NH2 ARG A   3       3.247   2.901   9.075  0.00  0.00    +0.000 NA
ATOM     30  N   LEU A   4      -2.647   5.532   5.753  0.00  0.00    +0.000 N 
ATOM     31  CA  LEU A   4      -3.481   4.334   5.846  0.00  0.00    +0.000 C 
ATOM     32  C   LEU A   4      -4.017   3.946   4.459  0.00  0.00    +0.000 C 
ATOM     33  O   LEU A   4      -4.026   2.779   4.088  0.00  0.00    +0.000 OA
ATOM     34  CB  LEU A   4      -4.649   4.644   6.779  0.00  0.00    +0.000 C 
ATOM     35  CG  LEU A   4      -5.570   3.437   6.968  0.00  0.00    +0.000 C 
ATOM     36  CD1 LEU A   4      -4.822   2.342   7.714  0.00  0.00    +0.000 C 
ATOM     37  CD2 LEU A   4      -6.803   3.861   7.745  0.00  0.00    +0.000 C 
ATOM     38  N   LYS A   5      -4.459   4.938   3.711  0.00  0.00    +0.000 N 
ATOM     39  CA  LYS A   5      -4.985   4.677   2.368  0.00  0.00    +0.000 C 
ATOM     40  C   LYS A   5      -3.850   4.258   1.435  0.00  0.00    +0.000 C 
ATOM     41  O   LYS A   5      -4.013   3.368   0.614  0.00  0.00    +0.000 OA
ATOM     42  CB  LYS A   5      -5.650   5.955   1.852  0.00  0.00    +0.000 C 
ATOM     43  CG  LYS A   5      -6.099   5.816   0.411  0.00  0.00    +0.000 C 
ATOM     44  CD  LYS A   5      -7.009   4.616   0.226  0.00  0.00    +0.000 C 
ATOM     45  CE  LYS A   5      -8.075   4.849  -0.832  0.00  0.00    +0.000 C 
ATOM     46  NZ  LYS A   5      -7.500   4.793  -2.178  0.00  0.00    +0.000 N 
ATOM     47  N   LEU A   6      -2.713   4.904   1.577  0.00  0.00    +0.000 N 
ATOM     48  CA  LEU A   6      -1.561   4.586   0.731  0.00  0.00    +0.000 C 
ATOM     49  C   LEU A   6      -1.162   3.122   0.926  0.00  0.00    +0.000 C 
ATOM     50  O   LEU A   6      -0.727   2.466  -0.012  0.00  0.00    +0.000 OA
ATOM     51  CB  LEU A   6      -0.394   5.494   1.133  0.00  0.00    +0.000 C 
ATOM     52  CG  LEU A   6       0.794   5.328   0.186  0.00  0.00    +0.000 C 
ATOM     53  CD1 LEU A   6       0.469   5.956  -1.159  0.00  0.00    +0.000 C 
ATOM     54  CD2 LEU A   6       2.025   5.984   0.784  0.00  0.00    +0.000 C 
ATOM     55  N   LYS A   7      -1.311   2.637   2.115  0.00  0.00    +0.000 N 
ATOM     56  CA  LYS A   7      -0.955   1.244   2.398  0.00  0.00    +0.000 C 
ATOM     57  C   LYS A   7      -1.822   0.299   1.567  0.00  0.00    +0.000 C 
ATOM     58  O   LYS A   7      -1.328  -0.657   0.981  0.00  0.00    +0.000 OA
ATOM     59  CB  LYS A   7      -1.180   0.972   3.882  0.00  0.00    +0.000 C 
ATOM     60  CG  LYS A   7      -0.654  -0.413   4.248  0.00  0.00    +0.000 C 
ATOM     61  CD  LYS A   7      -1.263  -0.879   5.544  0.00  0.00    +0.000 C 
ATOM     62  CE  LYS A   7      -0.579  -2.145   6.012  0.00  0.00    +0.000 C 
ATOM     63  NZ  LYS A   7      -1.580  -3.082   6.556  0.00  0.00    +0.000 N 
ATOM     64  N   SER A   8      -3.099   0.570   1.524  0.00  0.00    +0.000 N 
ATOM     65  CA  SER A   8      -4.010  -0.290   0.765  0.00  0.00    +0.000 C 
ATOM     66  C   SER A   8      -3.684  -0.220  -0.726  0.00  0.00    +0.000 C 
ATOM     67  O   SER A   8      -3.842  -1.199  -1.444  0.00  0.00    +0.000 OA
ATOM     68  CB  SER A   8      -5.442   0.173   1.002  0.00  0.00    +0.000 C 
ATOM     69  OG  SER A   8      -6.318  -0.912   0.771  0.00  0.00    +0.000 OA
ATOM     70  N   ASP A   9      -3.221   0.926  -1.173  0.00  0.00    +0.000 N 
ATOM     71  CA  ASP A   9      -2.849   1.051  -2.588  0.00  0.00    +0.000 C 
ATOM     72  C   ASP A   9      -1.524   0.351  -2.844  0.00  0.00    +0.000 C 
ATOM     73  O   ASP A   9      -1.332  -0.249  -3.897  0.00  0.00    +0.000 OA
ATOM     74  CB  ASP A   9      -2.724   2.533  -2.939  0.00  0.00    +0.000 C 
ATOM     75  CG  ASP A   9      -4.092   3.128  -3.209  0.00  0.00    +0.000 C 
ATOM     76  OD1 ASP A   9      -4.973   2.400  -3.676  0.00  0.00    +0.000 OA
ATOM     77  OD2 ASP A   9      -4.274   4.330  -2.959  0.00  0.00    +0.000 OA
ATOM     78  N   ALA A  10      -0.629   0.417  -1.905  0.00  0.00    +0.000 N 
ATOM     79  CA  ALA A  10       0.677  -0.224  -2.074  0.00  0.00    +0.000 C 
ATOM     80  C   ALA A  10       0.517  -1.733  -2.201  0.00  0.00    +0.000 C 
ATOM     81  O   ALA A  10       1.161  -2.362  -3.036  0.00  0.00    +0.000 OA
ATOM     82  CB  ALA A  10       1.552   0.106  -0.870  0.00  0.00    +0.000 C 
ATOM     83  N   GLU A  11      -0.327  -2.300  -1.386  0.00  0.00    +0.000 N 
ATOM     84  CA  GLU A  11      -0.524  -3.755  -1.465  0.00  0.00    +0.000 C 
ATOM     85  C   GLU A  11      -1.227  -4.115  -2.769  0.00  0.00    +0.000 C 
ATOM     86  O   GLU A  11      -1.023  -5.193  -3.311  0.00  0.00    +0.000 OA
ATOM     87  CB  GLU A  11      -1.355  -4.212  -0.263  0.00  0.00    +0.000 C 
ATOM     88  CG  GLU A  11      -2.751  -3.622  -0.304  0.00  0.00    +0.000 C 
ATOM     89  CD  GLU A  11      -3.513  -3.962   0.954  0.00  0.00    +0.000 C 
ATOM     90  OE1 GLU A  11      -3.107  -3.518   2.027  0.00  0.00    +0.000 OA
ATOM     91  OE2 GLU A  11      -4.508  -4.685   0.859  0.00  0.00    +0.000 OA
ATOM     92  N   ALA A  12      -2.035  -3.221  -3.271  0.00  0.00    +0.000 N 
ATOM     93  CA  ALA A  12      -2.726  -3.482  -4.538  0.00  0.00    +0.000 C 
ATOM     94  C   ALA A  12      -1.735  -3.375  -5.694  0.00  0.00    +0.000 C 
ATOM     95  O   ALA A  12      -1.755  -4.180  -6.620  0.00  0.00    +0.000 OA
ATOM     96  CB  ALA A  12      -3.844  -2.463  -4.709  0.00  0.00    +0.000 C 
ATOM     97  N   ILE A  13      -0.880  -2.382  -5.634  0.00  0.00    +0.000 N 
ATOM     98  CA  ILE A  13       0.118  -2.203  -6.686  0.00  0.00    +0.000 C 
ATOM     99  C   ILE A  13       1.098  -3.377  -6.682  0.00  0.00    +0.000 C 
ATOM    100  O   ILE A  13       1.457  -3.905  -7.718  0.00  0.00    +0.000 OA
ATOM    101  CB  ILE A  13       0.867  -0.889  -6.445  0.00  0.00    +0.000 C 
ATOM    102  CG1 ILE A  13      -0.063   0.283  -6.756  0.00  0.00    +0.000 C 
ATOM    103  CG2 ILE A  13       2.107  -0.833  -7.338  0.00  0.00    +0.000 C 
ATOM    104  CD1 ILE A  13       0.500   1.576  -6.205  0.00  0.00    +0.000 C 
ATOM    105  N   ALA A  14       1.520  -3.774  -5.512  0.00  0.00    +0.000 N 
ATOM    106  CA  ALA A  14       2.475  -4.876  -5.407  0.00  0.00    +0.000 C 
ATOM    107  C   ALA A  14       1.857  -6.179  -5.901  0.00  0.00    +0.000 C 
ATOM    108  O   ALA A  14       2.542  -7.033  -6.444  0.00  0.00    +0.000 OA
ATOM    109  CB  ALA A  14       2.895  -5.023  -3.951  0.00  0.00    +0.000 C 
ATOM    110  N   SER A  15       0.576  -6.332  -5.713  0.00  0.00    +0.000 N 
ATOM    111  CA  SER A  15      -0.088  -7.560  -6.169  0.00  0.00    +0.000 C 
ATOM    112  C   SER A  15      -0.262  -7.533  -7.679  0.00  0.00    +0.000 C 
ATOM    113  O   SER A  15      -0.172  -8.560  -8.336  0.00  0.00    +0.000 OA
ATOM    114  CB  SER A  15      -1.450  -7.679  -5.481  0.00  0.00    +0.000 C 
ATOM    115  OG  SER A  15      -2.397  -6.888  -6.158  0.00  0.00    +0.000 OA
ATOM    116  N   ARG A  16      -0.506  -6.361  -8.234  0.00  0.00    +0.000 N 
ATOM    117  CA  ARG A  16      -0.664  -6.259  -9.693  0.00  0.00    +0.000 C 
ATOM    118  C   ARG A  16       0.696  -6.292 -10.372  0.00  0.00    +0.000 C 
ATOM    119  O   ARG A  16       0.800  -6.686 -11.525  0.00  0.00    +0.000 OA
ATOM    120  CB  ARG A  16      -1.405  -4.962 -10.022  0.00  0.00    +0.000 C 
ATOM    121  CG  ARG A  16      -2.891  -5.267 -10.159  0.00  0.00    +0.000 C 
ATOM    122  CD  ARG A  16      -3.755  -4.253  -9.455  0.00  0.00    +0.000 C 
ATOM    123  NE  ARG A  16      -5.103  -4.795  -9.300  0.00  0.00    +0.000 NA
ATOM    124  CZ  ARG A  16      -6.073  -4.188  -8.656  0.00  0.00    +0.000 C 
ATOM    125  NH1 ARG A  16      -5.878  -3.016  -8.093  0.00  0.00    +0.000 N 
ATOM    126  NH2 ARG A  16      -7.250  -4.776  -8.560  0.00  0.00    +0.000 NA
ATOM    127  N   LEU A  17       1.723  -5.890  -9.664  0.00  0.00    +0.000 N 
ATOM    128  CA  LEU A  17       3.081  -5.953 -10.214  0.00  0.00    +0.000 C 
ATOM    129  C   LEU A  17       3.756  -7.232  -9.731  0.00  0.00    +0.000 C 
ATOM    130  O   LEU A  17       3.442  -7.734  -8.659  0.00  0.00    +0.000 OA
ATOM    131  CB  LEU A  17       3.877  -4.743  -9.743  0.00  0.00    +0.000 C 
ATOM    132  CG  LEU A  17       3.542  -3.484 -10.531  0.00  0.00    +0.000 C 
ATOM    133  CD1 LEU A  17       4.065  -3.628 -11.952  0.00  0.00    +0.000 C 
ATOM    134  CD2 LEU A  17       4.181  -2.280  -9.866  0.00  0.00    +0.000 C 
ATOM    135  N   ASP A  18       4.661  -7.752 -10.537  0.00  0.00    +0.000 N 
ATOM    136  CA  ASP A  18       5.368  -8.990 -10.166  0.00  0.00    +0.000 C 
ATOM    137  C   ASP A  18       4.348 -10.057  -9.773  0.00  0.00    +0.000 C 
ATOM    138  O   ASP A  18       3.891 -10.808 -10.601  0.00  0.00    +0.000 OA
ATOM    139  CB  ASP A  18       6.318  -8.697  -9.005  0.00  0.00    +0.000 C 
ATOM    140  CG  ASP A  18       7.378  -7.703  -9.424  0.00  0.00    +0.000 C 
ATOM    141  OD1 ASP A  18       7.657  -7.626 -10.610  0.00  0.00    +0.000 OA
ATOM    142  OD2 ASP A  18       7.893  -7.013  -8.543  0.00  0.00    +0.000 OA
ATOM    143  N   GLY A  19       4.002 -10.111  -8.514  0.00  0.00    +0.000 N 
ATOM    144  CA  GLY A  19       3.005 -11.073  -8.043  0.00  0.00    +0.000 C 
ATOM    145  C   GLY A  19       2.458 -10.632  -6.708  0.00  0.00    +0.000 C 
ATOM    146  O   GLY A  19       1.379 -10.048  -6.620  0.00  0.00    +0.000 OA
ATOM    147  N   SER A  20       3.214 -10.863  -5.660  0.00  0.00    +0.000 N 
ATOM    148  CA  SER A  20       2.775 -10.422  -4.332  0.00  0.00    +0.000 C 
ATOM    149  C   SER A  20       4.001 -10.036  -3.509  0.00  0.00    +0.000 C 
ATOM    150  O   SER A  20       5.076 -10.554  -3.703  0.00  0.00    +0.000 OA
ATOM    151  CB  SER A  20       2.017 -11.554  -3.632  0.00  0.00    +0.000 C 
ATOM    152  OG  SER A  20       2.930 -12.568  -3.274  0.00  0.00    +0.000 OA
ATOM    153  N   THR A  21       3.813  -9.104  -2.606  0.00  0.00    +0.000 N 
ATOM    154  CA  THR A  21       4.927  -8.674  -1.748  0.00  0.00    +0.000 C 
ATOM    155  C   THR A  21       4.483  -8.665  -0.290  0.00  0.00    +0.000 C 
ATOM    156  O   THR A  21       3.309  -8.816   0.015  0.00  0.00    +0.000 OA
ATOM    157  CB  THR A  21       5.368  -7.264  -2.154  0.00  0.00    +0.000 C 
ATOM    158  OG1 THR A  21       4.245  -6.397  -2.030  0.00  0.00    +0.000 OA
ATOM    159  CG2 THR A  21       5.853  -7.245  -3.589  0.00  0.00    +0.000 C 
ATOM    160  N   ALA A  22       5.441  -8.480   0.586  0.00  0.00    +0.000 N 
ATOM    161  CA  ALA A  22       5.131  -8.447   2.016  0.00  0.00    +0.000 C 
ATOM    162  C   ALA A  22       5.534  -7.087   2.576  0.00  0.00    +0.000 C 
ATOM    163  O   ALA A  22       6.578  -6.555   2.242  0.00  0.00    +0.000 OA
ATOM    164  CB  ALA A  22       5.901  -9.561   2.724  0.00  0.00    +0.000 C 
ATOM    165  N   TRP A  23       4.706  -6.531   3.426  0.00  0.00    +0.000 N 
ATOM    166  CA  TRP A  23       5.004  -5.227   4.028  0.00  0.00    +0.000 C 
ATOM    167  C   TRP A  23       5.260  -5.402   5.519  0.00  0.00    +0.000 C 
ATOM    168  O   TRP A  23       4.653  -6.231   6.164  0.00  0.00    +0.000 OA
ATOM    169  CB  TRP A  23       3.838  -4.269   3.807  0.00  0.00    +0.000 C 
ATOM    170  CG  TRP A  23       3.565  -4.079   2.351  0.00  0.00    +0.000 C 
ATOM    171  CD1 TRP A  23       2.525  -4.605   1.653  0.00  0.00    +0.000 C 
ATOM    172  CD2 TRP A  23       4.355  -3.336   1.406  0.00  0.00    +0.000 A 
ATOM    173  NE1 TRP A  23       2.618  -4.230   0.336  0.00  0.00    +0.000 NA
ATOM    174  CE2 TRP A  23       3.730  -3.455   0.151  0.00  0.00    +0.000 A 
ATOM    175  CE3 TRP A  23       5.529  -2.581   1.501  0.00  0.00    +0.000 A 
ATOM    176  CZ2 TRP A  23       4.240  -2.846  -0.995  0.00  0.00    +0.000 A 
ATOM    177  CZ3 TRP A  23       6.031  -1.977   0.362  0.00  0.00    +0.000 A 
ATOM    178  CH2 TRP A  23       5.396  -2.104  -0.876  0.00  0.00    +0.000 A 
ATOM    179  N   THR A  24       6.128  -4.571   6.025  0.00  0.00    +0.000 N 
ATOM    180  CA  THR A  24       6.449  -4.640   7.461  0.00  0.00    +0.000 C 
ATOM    181  C   THR A  24       5.558  -3.674   8.230  0.00  0.00    +0.000 C 
ATOM    182  O   THR A  24       5.457  -3.741   9.435  0.00  0.00    +0.000 OA
ATOM    183  CB  THR A  24       7.924  -4.271   7.628  0.00  0.00    +0.000 C 
ATOM    184  OG1 THR A  24       8.293  -4.477   8.985  0.00  0.00    +0.000 OA
ATOM    185  CG2 THR A  24       8.148  -2.817   7.261  0.00  0.00    +0.000 C 
ATOM    186  N   ASP A  25       4.895  -2.762   7.513  0.00  0.00    +0.000 N 
ATOM    187  CA  ASP A  25       4.052  -1.760   8.146  0.00  0.00    +0.000 C 
ATOM    188  C   ASP A  25       4.738  -1.263   9.407  0.00  0.00    +0.000 C 
ATOM    189  O   ASP A  25       4.060  -0.815  10.315  0.00  0.00    +0.000 OA
ATOM    190  CB  ASP A  25       2.683  -2.351   8.473  0.00  0.00    +0.000 C 
ATOM    191  CG  ASP A  25       1.620  -1.267   8.516  0.00  0.00    +0.000 C 
ATOM    192  OD1 ASP A  25       0.970  -1.039   7.494  0.00  0.00    +0.000 OA
ATOM    193  OD2 ASP A  25       1.455  -0.641   9.569  0.00  0.00    +0.000 OA
ATOM    194  H   PHE A   1      -1.348  13.141   1.072  0.00  0.00    +0.000 HD
ATOM    195  H   PHE A   1      -0.596  12.648   2.474  0.00  0.00    +0.000 HD
ATOM    196  H   ARG A   3      -1.434   8.765   5.611  0.00  0.00    +0.000 HD
ATOM    197  H   ARG A   3       0.210   3.011   8.243  0.00  0.00    +0.000 HD
ATOM    198  H   ARG A   3       0.981   2.001   9.380  0.00  0.00    +0.000 HD
ATOM    199  H   ARG A   3       4.116   3.324   8.885  0.00  0.00    +0.000 HD
ATOM    200  H   ARG A   3       3.186   2.179   9.742  0.00  0.00    +0.000 HD
ATOM    201  H   ARG A   3       3.719   2.391   9.772  0.00  0.00    +0.000 HD
ATOM    202  H   LEU A   4      -2.914   6.352   6.228  0.00  0.00    +0.000 HD
ATOM    203  H   LYS A   5      -4.436   5.860   4.057  0.00  0.00    +0.000 HD
ATOM    204  H   LYS A   5      -7.093   3.871  -2.336  0.00  0.00    +0.000 HD
ATOM    205  H   LYS A   5      -6.775   5.505  -2.268  0.00  0.00    +0.000 HD
ATOM    206  H   LYS A   5      -8.232   4.964  -2.868  0.00  0.00    +0.000 HD
ATOM    207  H   LEU A   6      -2.636   5.609   2.260  0.00  0.00    +0.000 HD
ATOM    208  H   LYS A   7      -1.666   3.207   2.835  0.00  0.00    +0.000 HD
ATOM    209  H   LYS A   7      -2.058  -2.648   7.346  0.00  0.00    +0.000 HD
ATOM    210  H   LYS A   7      -1.114  -3.934   6.867  0.00  0.00    +0.000 HD
ATOM    211  H   LYS A   7      -2.260  -3.312   5.831  0.00  0.00    +0.000 HD
ATOM    212  H   SER A   8      -3.450   1.355   2.003  0.00  0.00    +0.000 HD
ATOM    213  H   SER A   8      -6.217  -1.221  -0.143  0.00  0.00    +0.000 HD
ATOM    214  H   ASP A   9      -3.124   1.694  -0.564  0.00  0.00    +0.000 HD
ATOM    215  H   ASP A   9      -3.576   4.846  -2.605  0.00  0.00    +0.000 HD
ATOM    216  H   ALA A  10      -0.830   0.902  -1.072  0.00  0.00    +0.000 HD
ATOM    217  H   GLU A  11      -0.825  -1.763  -0.728  0.00  0.00    +0.000 HD
ATOM    218  H   GLU A  11      -2.346  -2.972   2.050  0.00  0.00    +0.000 HD
ATOM    219  H   ALA A  12      -2.181  -2.370  -2.798  0.00  0.00    +0.000 HD
ATOM    220  H   ILE A  13      -0.911  -1.754  -4.876  0.00  0.00    +0.000 HD
ATOM    221  H   ALA A  14       1.194  -3.329  -4.697  0.00  0.00    +0.000 HD
ATOM    222  H   SER A  15       0.055  -5.626  -5.266  0.00  0.00    +0.000 HD
ATOM    223  H   SER A  15      -2.113  -5.961  -6.144  0.00  0.00    +0.000 HD
ATOM    224  H   ARG A  16      -0.582  -5.556  -7.672  0.00  0.00    +0.000 HD
ATOM    225  H   ARG A  16      -5.000  -2.576  -8.164  0.00  0.00    +0.000 HD
ATOM    226  H   ARG A  16      -6.610  -2.579  -7.601  0.00  0.00    +0.000 HD
ATOM    227  H   ARG A  16      -7.398  -5.654  -8.981  0.00  0.00    +0.000 HD
ATOM    228  H   ARG A  16      -7.981  -4.337  -8.067  0.00  0.00    +0.000 HD
ATOM    229  H   ARG A  16      -6.667  -5.315  -7.978  0.00  0.00    +0.000 HD
ATOM    230  H   LEU A  17       1.581  -5.542  -8.754  0.00  0.00    +0.000 HD
ATOM    231  H   ASP A  18       4.866  -7.310 -11.393  0.00  0.00    +0.000 HD
ATOM    232  H   ASP A  18       7.633  -7.123  -7.650  0.00  0.00    +0.000 HD
ATOM    233  H   GLY A  19       4.420  -9.493  -7.871  0.00  0.00    +0.000 HD
ATOM    234  H   SER A  20       4.074 -11.331  -5.765  0.00  0.00    +0.000 HD
ATOM    235  H   SER A  20       3.365 -12.908  -4.072  0.00  0.00    +0.000 HD
ATOM    236  H   THR A  21       2.925  -8.692  -2.502  0.00  0.00    +0.000 HD
ATOM    237  H   THR A  21       3.533  -6.706  -2.611  0.00  0.00    +0.000 HD
ATOM    238  H   ALA A  22       6.370  -8.363   0.281  0.00  0.00    +0.000 HD
ATOM    239  H   TRP A  23       3.871  -6.996   3.664  0.00  0.00    +0.000 HD
ATOM    240  H   THR A  24       6.566  -3.902   5.451  0.00  0.00    +0.000 HD
ATOM    241  H   THR A  24       7.746  -3.917   9.557  0.00  0.00    +0.000 HD
ATOM    242  H   ASP A  25       4.979  -2.768   6.532  0.00  0.00    +0.000 HD
ATOM    243  H   ASP A  25       1.972  -0.848  10.323  0.00  0.00    +0.000 HD
TER 
