MODEL 1
REMARK VINA RESULT:      -5.0      0.000      0.000
REMARK  Name = ox1_esm1_f8_ligand
REMARK  5 active torsions:
REMARK  status: ('A' for Active; 'I' for Inactive)
REMARK    1  A    between atoms: C_1  and  O_2
REMARK    2  A    between atoms: O_2  and  C_3
REMARK    3  A    between atoms: C_6  and  C_7
REMARK    4  A    between atoms: C_7  and  C_9
REMARK    5  A    between atoms: C_15  and  O_16
REMARK                            x       y       z     vdW  Elec       q    Type
REMARK                         _______ _______ _______ _____ _____    ______ ____
ROOT
ATOM      1  C   UNL     1       3.432   1.130   3.425  0.00  0.00    +0.000 A 
ATOM      2  C   UNL     1       2.528   1.897   2.691  0.00  0.00    +0.000 A 
ATOM      3  C   UNL     1       2.933   2.525   1.521  0.00  0.00    +0.000 A 
ATOM      4  C   UNL     1       4.231   2.393   1.058  0.00  0.00    +0.000 A 
ATOM      5  C   UNL     1       5.154   1.627   1.797  0.00  0.00    +0.000 A 
ATOM      6  C   UNL     1       4.737   1.005   2.973  0.00  0.00    +0.000 A 
ENDROOT
BRANCH   1   8
ATOM      7  C   UNL     1       2.973  -0.901   4.684  0.00  0.00    +0.000 C 
ATOM      8  O   UNL     1       2.984   0.524   4.562  0.00  0.00    +0.000 OA
ENDBRANCH   1   8
BRANCH   4   9
ATOM      9  C   UNL     1       4.655   3.063  -0.214  0.00  0.00    +0.000 C 
ATOM     10  O   UNL     1       5.342   4.079  -0.160  0.00  0.00    +0.000 OA
BRANCH   9  11
ATOM     11  C   UNL     1       4.233   2.524  -1.542  0.00  0.00    +0.000 A 
ATOM     12  C   UNL     1       4.793   1.407  -2.047  0.00  0.00    +0.000 A 
ATOM     13  C   UNL     1       4.428   0.831  -3.250  0.00  0.00    +0.000 A 
ATOM     14  C   UNL     1       3.462   1.445  -4.009  0.00  0.00    +0.000 A 
ATOM     15  C   UNL     1       2.869   2.606  -3.533  0.00  0.00    +0.000 A 
ATOM     16  C   UNL     1       3.265   3.137  -2.305  0.00  0.00    +0.000 A 
ENDBRANCH   9  11
ENDBRANCH   4   9
BRANCH   5  17
ATOM     17  O   UNL     1       6.439   1.510   1.352  0.00  0.00    +0.000 OA
ATOM     18  H   UNL     1       7.034   0.817   1.733  0.00  0.00    +0.000 HD
ENDBRANCH   5  17
TORSDOF 4
ENDMDL
MODEL 2
REMARK VINA RESULT:      -4.8      6.567      8.490
REMARK  Name = ox1_esm1_f8_ligand
REMARK  5 active torsions:
REMARK  status: ('A' for Active; 'I' for Inactive)
REMARK    1  A    between atoms: C_1  and  O_2
REMARK    2  A    between atoms: O_2  and  C_3
REMARK    3  A    between atoms: C_6  and  C_7
REMARK    4  A    between atoms: C_7  and  C_9
REMARK    5  A    between atoms: C_15  and  O_16
REMARK                            x       y       z     vdW  Elec       q    Type
REMARK                         _______ _______ _______ _____ _____    ______ ____
ROOT
ATOM      1  C   UNL     1       8.814  -4.992  -3.657  0.00  0.00    +0.000 A 
ATOM      2  C   UNL     1       7.868  -4.237  -2.962  0.00  0.00    +0.000 A 
ATOM      3  C   UNL     1       6.862  -3.575  -3.650  0.00  0.00    +0.000 A 
ATOM      4  C   UNL     1       6.770  -3.660  -5.029  0.00  0.00    +0.000 A 
ATOM      5  C   UNL     1       7.725  -4.413  -5.740  0.00  0.00    +0.000 A 
ATOM      6  C   UNL     1       8.735  -5.070  -5.038  0.00  0.00    +0.000 A 
ENDROOT
BRANCH   1   8
ATOM      7  C   UNL     1       9.465  -6.780  -2.141  0.00  0.00    +0.000 C 
ATOM      8  O   UNL     1       9.778  -5.633  -2.935  0.00  0.00    +0.000 OA
ENDBRANCH   1   8
BRANCH   4   9
ATOM      9  C   UNL     1       5.670  -2.953  -5.763  0.00  0.00    +0.000 C 
ATOM     10  O   UNL     1       5.165  -3.484  -6.748  0.00  0.00    +0.000 OA
BRANCH   9  11
ATOM     11  C   UNL     1       5.201  -1.604  -5.326  0.00  0.00    +0.000 A 
ATOM     12  C   UNL     1       5.783  -0.482  -5.793  0.00  0.00    +0.000 A 
ATOM     13  C   UNL     1       5.379   0.799  -5.462  0.00  0.00    +0.000 A 
ATOM     14  C   UNL     1       4.345   0.955  -4.571  0.00  0.00    +0.000 A 
ATOM     15  C   UNL     1       3.727  -0.175  -4.054  0.00  0.00    +0.000 A 
ATOM     16  C   UNL     1       4.165  -1.445  -4.433  0.00  0.00    +0.000 A 
ENDBRANCH   9  11
ENDBRANCH   4   9
BRANCH   5  17
ATOM     17  O   UNL     1       7.648  -4.484  -7.101  0.00  0.00    +0.000 OA
ATOM     18  H   UNL     1       6.818  -4.211  -7.565  0.00  0.00    +0.000 HD
ENDBRANCH   5  17
TORSDOF 4
ENDMDL
MODEL 3
REMARK VINA RESULT:      -4.7      1.787      5.815
REMARK  Name = ox1_esm1_f8_ligand
REMARK  5 active torsions:
REMARK  status: ('A' for Active; 'I' for Inactive)
REMARK    1  A    between atoms: C_1  and  O_2
REMARK    2  A    between atoms: O_2  and  C_3
REMARK    3  A    between atoms: C_6  and  C_7
REMARK    4  A    between atoms: C_7  and  C_9
REMARK    5  A    between atoms: C_15  and  O_16
REMARK                            x       y       z     vdW  Elec       q    Type
REMARK                         _______ _______ _______ _____ _____    ______ ____
ROOT
ATOM      1  C   UNL     1       4.416   3.290  -1.878  0.00  0.00    +0.000 A 
ATOM      2  C   UNL     1       4.780   1.945  -1.825  0.00  0.00    +0.000 A 
ATOM      3  C   UNL     1       5.221   1.387  -0.634  0.00  0.00    +0.000 A 
ATOM      4  C   UNL     1       5.297   2.147   0.521  0.00  0.00    +0.000 A 
ATOM      5  C   UNL     1       4.939   3.510   0.475  0.00  0.00    +0.000 A 
ATOM      6  C   UNL     1       4.502   4.060  -0.729  0.00  0.00    +0.000 A 
ENDROOT
BRANCH   1   8
ATOM      7  C   UNL     1       2.595   3.741  -3.428  0.00  0.00    +0.000 C 
ATOM      8  O   UNL     1       3.979   3.791  -3.070  0.00  0.00    +0.000 OA
ENDBRANCH   1   8
BRANCH   4   9
ATOM      9  C   UNL     1       5.760   1.532   1.807  0.00  0.00    +0.000 C 
ATOM     10  O   UNL     1       6.929   1.673   2.154  0.00  0.00    +0.000 OA
BRANCH   9  11
ATOM     11  C   UNL     1       4.826   0.732   2.654  0.00  0.00    +0.000 A 
ATOM     12  C   UNL     1       3.581   0.438   2.227  0.00  0.00    +0.000 A 
ATOM     13  C   UNL     1       2.676  -0.327   2.940  0.00  0.00    +0.000 A 
ATOM     14  C   UNL     1       3.038  -0.792   4.181  0.00  0.00    +0.000 A 
ATOM     15  C   UNL     1       4.305  -0.499   4.665  0.00  0.00    +0.000 A 
ATOM     16  C   UNL     1       5.185   0.265   3.898  0.00  0.00    +0.000 A 
ENDBRANCH   9  11
ENDBRANCH   4   9
BRANCH   5  17
ATOM     17  O   UNL     1       5.030   4.266   1.608  0.00  0.00    +0.000 OA
ATOM     18  H   UNL     1       4.498   4.027   2.407  0.00  0.00    +0.000 HD
ENDBRANCH   5  17
TORSDOF 4
ENDMDL
MODEL 4
REMARK VINA RESULT:      -4.7      1.227      1.923
REMARK  Name = ox1_esm1_f8_ligand
REMARK  5 active torsions:
REMARK  status: ('A' for Active; 'I' for Inactive)
REMARK    1  A    between atoms: C_1  and  O_2
REMARK    2  A    between atoms: O_2  and  C_3
REMARK    3  A    between atoms: C_6  and  C_7
REMARK    4  A    between atoms: C_7  and  C_9
REMARK    5  A    between atoms: C_15  and  O_16
REMARK                            x       y       z     vdW  Elec       q    Type
REMARK                         _______ _______ _______ _____ _____    ______ ____
ROOT
ATOM      1  C   UNL     1       3.221   2.140   3.517  0.00  0.00    +0.000 A 
ATOM      2  C   UNL     1       3.279   0.953   2.787  0.00  0.00    +0.000 A 
ATOM      3  C   UNL     1       3.960   0.909   1.579  0.00  0.00    +0.000 A 
ATOM      4  C   UNL     1       4.600   2.033   1.084  0.00  0.00    +0.000 A 
ATOM      5  C   UNL     1       4.540   3.239   1.810  0.00  0.00    +0.000 A 
ATOM      6  C   UNL     1       3.849   3.272   3.021  0.00  0.00    +0.000 A 
ENDROOT
BRANCH   1   8
ATOM      7  C   UNL     1       2.705   1.054   5.632  0.00  0.00    +0.000 C 
ATOM      8  O   UNL     1       2.549   2.131   4.704  0.00  0.00    +0.000 OA
ENDBRANCH   1   8
BRANCH   4   9
ATOM      9  C   UNL     1       5.346   1.972  -0.215  0.00  0.00    +0.000 C 
ATOM     10  O   UNL     1       6.573   1.927  -0.204  0.00  0.00    +0.000 OA
BRANCH   9  11
ATOM     11  C   UNL     1       4.617   1.992  -1.519  0.00  0.00    +0.000 A 
ATOM     12  C   UNL     1       3.721   2.960  -1.798  0.00  0.00    +0.000 A 
ATOM     13  C   UNL     1       3.037   3.063  -2.995  0.00  0.00    +0.000 A 
ATOM     14  C   UNL     1       3.243   2.105  -3.958  0.00  0.00    +0.000 A 
ATOM     15  C   UNL     1       4.147   1.082  -3.706  0.00  0.00    +0.000 A 
ATOM     16  C   UNL     1       4.822   1.034  -2.486  0.00  0.00    +0.000 A 
ENDBRANCH   9  11
ENDBRANCH   4   9
BRANCH   5  17
ATOM     17  O   UNL     1       5.155   4.353   1.316  0.00  0.00    +0.000 OA
ATOM     18  H   UNL     1       4.660   4.969   0.721  0.00  0.00    +0.000 HD
ENDBRANCH   5  17
TORSDOF 4
ENDMDL
MODEL 5
REMARK VINA RESULT:      -4.6      3.822      6.193
REMARK  Name = ox1_esm1_f8_ligand
REMARK  5 active torsions:
REMARK  status: ('A' for Active; 'I' for Inactive)
REMARK    1  A    between atoms: C_1  and  O_2
REMARK    2  A    between atoms: O_2  and  C_3
REMARK    3  A    between atoms: C_6  and  C_7
REMARK    4  A    between atoms: C_7  and  C_9
REMARK    5  A    between atoms: C_15  and  O_16
REMARK                            x       y       z     vdW  Elec       q    Type
REMARK                         _______ _______ _______ _____ _____    ______ ____
ROOT
ATOM      1  C   UNL     1       8.559   0.607   5.771  0.00  0.00    +0.000 A 
ATOM      2  C   UNL     1       8.233  -0.109   4.619  0.00  0.00    +0.000 A 
ATOM      3  C   UNL     1       6.905  -0.334   4.289  0.00  0.00    +0.000 A 
ATOM      4  C   UNL     1       5.883   0.153   5.086  0.00  0.00    +0.000 A 
ATOM      5  C   UNL     1       6.202   0.870   6.256  0.00  0.00    +0.000 A 
ATOM      6  C   UNL     1       7.540   1.086   6.580  0.00  0.00    +0.000 A 
ENDROOT
BRANCH   1   8
ATOM      7  C   UNL     1      10.595  -0.068   6.919  0.00  0.00    +0.000 C 
ATOM      8  O   UNL     1       9.879   0.812   6.048  0.00  0.00    +0.000 OA
ENDBRANCH   1   8
BRANCH   4   9
ATOM      9  C   UNL     1       4.450  -0.083   4.713  0.00  0.00    +0.000 C 
ATOM     10  O   UNL     1       3.907  -1.133   5.045  0.00  0.00    +0.000 OA
BRANCH   9  11
ATOM     11  C   UNL     1       3.687   0.930   3.925  0.00  0.00    +0.000 A 
ATOM     12  C   UNL     1       2.834   1.781   4.530  0.00  0.00    +0.000 A 
ATOM     13  C   UNL     1       2.122   2.767   3.871  0.00  0.00    +0.000 A 
ATOM     14  C   UNL     1       2.250   2.874   2.508  0.00  0.00    +0.000 A 
ATOM     15  C   UNL     1       3.107   2.007   1.843  0.00  0.00    +0.000 A 
ATOM     16  C   UNL     1       3.813   1.040   2.559  0.00  0.00    +0.000 A 
ENDBRANCH   9  11
ENDBRANCH   4   9
BRANCH   5  17
ATOM     17  O   UNL     1       5.196   1.337   7.054  0.00  0.00    +0.000 OA
ATOM     18  H   UNL     1       5.219   1.168   8.028  0.00  0.00    +0.000 HD
ENDBRANCH   5  17
TORSDOF 4
ENDMDL
MODEL 6
REMARK VINA RESULT:      -4.5      4.021      6.758
REMARK  Name = ox1_esm1_f8_ligand
REMARK  5 active torsions:
REMARK  status: ('A' for Active; 'I' for Inactive)
REMARK    1  A    between atoms: C_1  and  O_2
REMARK    2  A    between atoms: O_2  and  C_3
REMARK    3  A    between atoms: C_6  and  C_7
REMARK    4  A    between atoms: C_7  and  C_9
REMARK    5  A    between atoms: C_15  and  O_16
REMARK                            x       y       z     vdW  Elec       q    Type
REMARK                         _______ _______ _______ _____ _____    ______ ____
ROOT
ATOM      1  C   UNL     1      10.071  -1.280   3.067  0.00  0.00    +0.000 A 
ATOM      2  C   UNL     1       9.079  -2.247   3.241  0.00  0.00    +0.000 A 
ATOM      3  C   UNL     1       7.880  -1.914   3.853  0.00  0.00    +0.000 A 
ATOM      4  C   UNL     1       7.641  -0.622   4.292  0.00  0.00    +0.000 A 
ATOM      5  C   UNL     1       8.639   0.359   4.129  0.00  0.00    +0.000 A 
ATOM      6  C   UNL     1       9.842   0.011   3.516  0.00  0.00    +0.000 A 
ENDROOT
BRANCH   1   8
ATOM      7  C   UNL     1      11.255  -2.749   1.532  0.00  0.00    +0.000 C 
ATOM      8  O   UNL     1      11.229  -1.653   2.450  0.00  0.00    +0.000 OA
ENDBRANCH   1   8
BRANCH   4   9
ATOM      9  C   UNL     1       6.336  -0.269   4.939  0.00  0.00    +0.000 C 
ATOM     10  O   UNL     1       6.295  -0.091   6.154  0.00  0.00    +0.000 OA
BRANCH   9  11
ATOM     11  C   UNL     1       5.085  -0.156   4.131  0.00  0.00    +0.000 A 
ATOM     12  C   UNL     1       3.952  -0.778   4.515  0.00  0.00    +0.000 A 
ATOM     13  C   UNL     1       2.750  -0.688   3.838  0.00  0.00    +0.000 A 
ATOM     14  C   UNL     1       2.698   0.044   2.678  0.00  0.00    +0.000 A 
ATOM     15  C   UNL     1       3.846   0.689   2.238  0.00  0.00    +0.000 A 
ATOM     16  C   UNL     1       5.030   0.578   2.968  0.00  0.00    +0.000 A 
ENDBRANCH   9  11
ENDBRANCH   4   9
BRANCH   5  17
ATOM     17  O   UNL     1       8.414   1.628   4.576  0.00  0.00    +0.000 OA
ATOM     18  H   UNL     1       8.965   2.000   5.309  0.00  0.00    +0.000 HD
ENDBRANCH   5  17
TORSDOF 4
ENDMDL
MODEL 7
REMARK VINA RESULT:      -4.5      2.185      5.991
REMARK  Name = ox1_esm1_f8_ligand
REMARK  5 active torsions:
REMARK  status: ('A' for Active; 'I' for Inactive)
REMARK    1  A    between atoms: C_1  and  O_2
REMARK    2  A    between atoms: O_2  and  C_3
REMARK    3  A    between atoms: C_6  and  C_7
REMARK    4  A    between atoms: C_7  and  C_9
REMARK    5  A    between atoms: C_15  and  O_16
REMARK                            x       y       z     vdW  Elec       q    Type
REMARK                         _______ _______ _______ _____ _____    ______ ____
ROOT
ATOM      1  C   UNL     1       6.528   3.043  -1.380  0.00  0.00    +0.000 A 
ATOM      2  C   UNL     1       5.833   1.836  -1.458  0.00  0.00    +0.000 A 
ATOM      3  C   UNL     1       4.882   1.515  -0.501  0.00  0.00    +0.000 A 
ATOM      4  C   UNL     1       4.596   2.385   0.536  0.00  0.00    +0.000 A 
ATOM      5  C   UNL     1       5.298   3.604   0.628  0.00  0.00    +0.000 A 
ATOM      6  C   UNL     1       6.256   3.914  -0.336  0.00  0.00    +0.000 A 
ENDROOT
BRANCH   1   8
ATOM      7  C   UNL     1       7.227   2.924  -3.707  0.00  0.00    +0.000 C 
ATOM      8  O   UNL     1       7.446   3.319  -2.350  0.00  0.00    +0.000 OA
ENDBRANCH   1   8
BRANCH   4   9
ATOM      9  C   UNL     1       3.556   2.037   1.557  0.00  0.00    +0.000 C 
ATOM     10  O   UNL     1       2.463   2.595   1.519  0.00  0.00    +0.000 OA
BRANCH   9  11
ATOM     11  C   UNL     1       3.840   1.039   2.632  0.00  0.00    +0.000 A 
ATOM     12  C   UNL     1       2.863   0.254   3.126  0.00  0.00    +0.000 A 
ATOM     13  C   UNL     1       3.059  -0.715   4.094  0.00  0.00    +0.000 A 
ATOM     14  C   UNL     1       4.317  -0.873   4.624  0.00  0.00    +0.000 A 
ATOM     15  C   UNL     1       5.350  -0.074   4.153  0.00  0.00    +0.000 A 
ATOM     16  C   UNL     1       5.100   0.878   3.164  0.00  0.00    +0.000 A 
ENDBRANCH   9  11
ENDBRANCH   4   9
BRANCH   5  17
ATOM     17  O   UNL     1       5.032   4.457   1.661  0.00  0.00    +0.000 OA
ATOM     18  H   UNL     1       5.651   5.202   1.860  0.00  0.00    +0.000 HD
ENDBRANCH   5  17
TORSDOF 4
ENDMDL
MODEL 8
REMARK VINA RESULT:      -4.5      2.023      3.526
REMARK  Name = ox1_esm1_f8_ligand
REMARK  5 active torsions:
REMARK  status: ('A' for Active; 'I' for Inactive)
REMARK    1  A    between atoms: C_1  and  O_2
REMARK    2  A    between atoms: O_2  and  C_3
REMARK    3  A    between atoms: C_6  and  C_7
REMARK    4  A    between atoms: C_7  and  C_9
REMARK    5  A    between atoms: C_15  and  O_16
REMARK                            x       y       z     vdW  Elec       q    Type
REMARK                         _______ _______ _______ _____ _____    ______ ____
ROOT
ATOM      1  C   UNL     1       4.678   2.380   1.410  0.00  0.00    +0.000 A 
ATOM      2  C   UNL     1       5.787   1.698   0.908  0.00  0.00    +0.000 A 
ATOM      3  C   UNL     1       5.957   1.553  -0.461  0.00  0.00    +0.000 A 
ATOM      4  C   UNL     1       5.042   2.089  -1.351  0.00  0.00    +0.000 A 
ATOM      5  C   UNL     1       3.915   2.773  -0.854  0.00  0.00    +0.000 A 
ATOM      6  C   UNL     1       3.752   2.908   0.524  0.00  0.00    +0.000 A 
ENDROOT
BRANCH   1   8
ATOM      7  C   UNL     1       3.514   1.840   3.477  0.00  0.00    +0.000 C 
ATOM      8  O   UNL     1       4.560   2.505   2.763  0.00  0.00    +0.000 OA
ENDBRANCH   1   8
BRANCH   4   9
ATOM      9  C   UNL     1       5.242   1.940  -2.829  0.00  0.00    +0.000 C 
ATOM     10  O   UNL     1       5.398   2.943  -3.519  0.00  0.00    +0.000 OA
BRANCH   9  11
ATOM     11  C   UNL     1       5.229   0.592  -3.472  0.00  0.00    +0.000 A 
ATOM     12  C   UNL     1       4.068  -0.045  -3.722  0.00  0.00    +0.000 A 
ATOM     13  C   UNL     1       3.977  -1.276  -4.347  0.00  0.00    +0.000 A 
ATOM     14  C   UNL     1       5.135  -1.921  -4.706  0.00  0.00    +0.000 A 
ATOM     15  C   UNL     1       6.353  -1.306  -4.454  0.00  0.00    +0.000 A 
ATOM     16  C   UNL     1       6.388  -0.057  -3.834  0.00  0.00    +0.000 A 
ENDBRANCH   9  11
ENDBRANCH   4   9
BRANCH   5  17
ATOM     17  O   UNL     1       3.001   3.287  -1.729  0.00  0.00    +0.000 OA
ATOM     18  H   UNL     1       2.365   2.686  -2.190  0.00  0.00    +0.000 HD
ENDBRANCH   5  17
TORSDOF 4
ENDMDL
MODEL 9
REMARK VINA RESULT:      -4.5      3.883      6.457
REMARK  Name = ox1_esm1_f8_ligand
REMARK  5 active torsions:
REMARK  status: ('A' for Active; 'I' for Inactive)
REMARK    1  A    between atoms: C_1  and  O_2
REMARK    2  A    between atoms: O_2  and  C_3
REMARK    3  A    between atoms: C_6  and  C_7
REMARK    4  A    between atoms: C_7  and  C_9
REMARK    5  A    between atoms: C_15  and  O_16
REMARK                            x       y       z     vdW  Elec       q    Type
REMARK                         _______ _______ _______ _____ _____    ______ ____
ROOT
ATOM      1  C   UNL     1       9.793  -1.779   2.332  0.00  0.00    +0.000 A 
ATOM      2  C   UNL     1       9.035  -2.130   3.450  0.00  0.00    +0.000 A 
ATOM      3  C   UNL     1       8.014  -1.300   3.890  0.00  0.00    +0.000 A 
ATOM      4  C   UNL     1       7.721  -0.121   3.225  0.00  0.00    +0.000 A 
ATOM      5  C   UNL     1       8.487   0.246   2.100  0.00  0.00    +0.000 A 
ATOM      6  C   UNL     1       9.513  -0.594   1.670  0.00  0.00    +0.000 A 
ENDROOT
BRANCH   1   8
ATOM      7  C   UNL     1      10.849  -3.968   2.440  0.00  0.00    +0.000 C 
ATOM      8  O   UNL     1      10.779  -2.633   1.933  0.00  0.00    +0.000 OA
ENDBRANCH   1   8
BRANCH   4   9
ATOM      9  C   UNL     1       6.607   0.762   3.698  0.00  0.00    +0.000 C 
ATOM     10  O   UNL     1       6.873   1.850   4.201  0.00  0.00    +0.000 OA
BRANCH   9  11
ATOM     11  C   UNL     1       5.183   0.325   3.589  0.00  0.00    +0.000 A 
ATOM     12  C   UNL     1       4.438   0.650   2.513  0.00  0.00    +0.000 A 
ATOM     13  C   UNL     1       3.127   0.250   2.327  0.00  0.00    +0.000 A 
ATOM     14  C   UNL     1       2.518  -0.494   3.308  0.00  0.00    +0.000 A 
ATOM     15  C   UNL     1       3.245  -0.838   4.439  0.00  0.00    +0.000 A 
ATOM     16  C   UNL     1       4.570  -0.421   4.570  0.00  0.00    +0.000 A 
ENDBRANCH   9  11
ENDBRANCH   4   9
BRANCH   5  17
ATOM     17  O   UNL     1       8.212   1.416   1.453  0.00  0.00    +0.000 OA
ATOM     18  H   UNL     1       7.991   1.409   0.488  0.00  0.00    +0.000 HD
ENDBRANCH   5  17
TORSDOF 4
ENDMDL
