REMARK  Name = shuffle_control_esm0_ligand
REMARK  12 active torsions:
REMARK  status: ('A' for Active; 'I' for Inactive)
REMARK    1  A    between atoms: C_1  and  C_2
REMARK    2  A    between atoms: C_2  and  C_3
REMARK    3  A    between atoms: C_3  and  C_4
REMARK    4  A    between atoms: C_4  and  C_5
REMARK    5  A    between atoms: C_5  and  C_6
REMARK    6  A    between atoms: C_5  and  O_8
REMARK    7  A    between atoms: C_6  and  C_7
REMARK    8  A    between atoms: O_8  and  C_9
REMARK    9  A    between atoms: C_9  and  C_11
REMARK   10  A    between atoms: C_12  and  C_13
REMARK   11  A    between atoms: C_16  and  O_17
REMARK   12  A    between atoms: O_17  and  C_18
REMARK                            x       y       z     vdW  Elec       q    Type
REMARK                         _______ _______ _______ _____ _____    ______ ____
ROOT
ATOM      1  C   UNL     1       1.554   2.638  -4.345  0.00  0.00    +0.000 C 
ATOM      2  O   UNL     1       0.574   2.264  -4.908  0.00  0.00    +0.000 OA
ENDROOT
BRANCH   1   3
ATOM      3  C   UNL     1       1.697   3.995  -3.735  0.00  0.00    +0.000 C 
ATOM      4  C   UNL     1       2.294   4.974  -4.392  0.00  0.00    +0.000 C 
BRANCH   4   5
ATOM      5  C   UNL     1       2.582   6.311  -3.792  0.00  0.00    +0.000 A 
ATOM      6  C   UNL     1       3.851   6.819  -3.909  0.00  0.00    +0.000 A 
ATOM      7  C   UNL     1       4.183   8.044  -3.346  0.00  0.00    +0.000 A 
ATOM      8  C   UNL     1       3.232   8.780  -2.665  0.00  0.00    +0.000 A 
ATOM      9  C   UNL     1       1.939   8.268  -2.554  0.00  0.00    +0.000 A 
ATOM     10  C   UNL     1       1.612   7.035  -3.127  0.00  0.00    +0.000 A 
BRANCH   8  11
ATOM     11  O   UNL     1       3.516   9.969  -2.093  0.00  0.00    +0.000 OA
ATOM     12  C   UNL     1       4.858  10.454  -2.111  0.00  0.00    +0.000 C 
ENDBRANCH   8  11
ENDBRANCH   4   5
ENDBRANCH   1   3
BRANCH   1  13
ATOM     13  O   UNL     1       2.648   1.848  -4.216  0.00  0.00    +0.000 OA
BRANCH  13  14
ATOM     14  C   UNL     1       2.756   0.578  -4.850  0.00  0.00    +0.000 C 
BRANCH  14  15
ATOM     15  C   UNL     1       2.654  -0.575  -3.868  0.00  0.00    +0.000 C 
ATOM     16  C   UNL     1       1.315  -0.784  -3.222  0.00  0.00    +0.000 C 
ENDBRANCH  14  15
BRANCH  14  17
ATOM     17  C   UNL     1       4.097   0.504  -5.505  0.00  0.00    +0.000 C 
BRANCH  17  18
ATOM     18  C   UNL     1       4.498   1.734  -6.244  0.00  0.00    +0.000 C 
BRANCH  18  20
ATOM     19  C   UNL     1       6.626   0.513  -6.943  0.00  0.00    +0.000 C 
ATOM     20  C   UNL     1       5.908   1.803  -6.748  0.00  0.00    +0.000 C 
ENDBRANCH  18  20
ENDBRANCH  17  18
ENDBRANCH  14  17
ENDBRANCH  13  14
ENDBRANCH   1  13
TORSDOF 9
