MODEL 1
REMARK VINA RESULT:      -5.3      0.000      0.000
REMARK  Name = shuffle_control_esm0_ligand
REMARK  12 active torsions:
REMARK  status: ('A' for Active; 'I' for Inactive)
REMARK    1  A    between atoms: C_1  and  C_2
REMARK    2  A    between atoms: C_2  and  C_3
REMARK    3  A    between atoms: C_3  and  C_4
REMARK    4  A    between atoms: C_4  and  C_5
REMARK    5  A    between atoms: C_5  and  C_6
REMARK    6  A    between atoms: C_5  and  O_8
REMARK    7  A    between atoms: C_6  and  C_7
REMARK    8  A    between atoms: O_8  and  C_9
REMARK    9  A    between atoms: C_9  and  C_11
REMARK   10  A    between atoms: C_12  and  C_13
REMARK   11  A    between atoms: C_16  and  O_17
REMARK   12  A    between atoms: O_17  and  C_18
REMARK                            x       y       z     vdW  Elec       q    Type
REMARK                         _______ _______ _______ _____ _____    ______ ____
ROOT
ATOM      1  C   UNL     1       0.445  -0.836  -4.027  0.00  0.00    +0.000 C 
ATOM      2  O   UNL     1      -0.085  -1.541  -4.827  0.00  0.00    +0.000 OA
ENDROOT
BRANCH   1   3
ATOM      3  C   UNL     1       0.485   0.655  -4.127  0.00  0.00    +0.000 C 
ATOM      4  C   UNL     1       1.509   1.339  -3.648  0.00  0.00    +0.000 C 
BRANCH   4   5
ATOM      5  C   UNL     1       1.551   2.831  -3.601  0.00  0.00    +0.000 A 
ATOM      6  C   UNL     1       2.617   3.434  -2.983  0.00  0.00    +0.000 A 
ATOM      7  C   UNL     1       2.694   4.817  -2.884  0.00  0.00    +0.000 A 
ATOM      8  C   UNL     1       1.699   5.612  -3.421  0.00  0.00    +0.000 A 
ATOM      9  C   UNL     1       0.621   4.999  -4.059  0.00  0.00    +0.000 A 
ATOM     10  C   UNL     1       0.552   3.606  -4.157  0.00  0.00    +0.000 A 
BRANCH   8  11
ATOM     11  O   UNL     1       1.730   6.959  -3.337  0.00  0.00    +0.000 OA
ATOM     12  C   UNL     1       2.512   7.581  -2.318  0.00  0.00    +0.000 C 
ENDBRANCH   8  11
ENDBRANCH   4   5
ENDBRANCH   1   3
BRANCH   1  13
ATOM     13  O   UNL     1       1.076  -1.342  -2.938  0.00  0.00    +0.000 OA
BRANCH  13  14
ATOM     14  C   UNL     1       2.003  -2.418  -3.021  0.00  0.00    +0.000 C 
BRANCH  14  15
ATOM     15  C   UNL     1       1.720  -3.511  -2.006  0.00  0.00    +0.000 C 
ATOM     16  C   UNL     1       0.733  -3.178  -0.926  0.00  0.00    +0.000 C 
ENDBRANCH  14  15
BRANCH  14  17
ATOM     17  C   UNL     1       3.366  -1.873  -2.739  0.00  0.00    +0.000 C 
BRANCH  17  18
ATOM     18  C   UNL     1       3.441  -0.961  -1.564  0.00  0.00    +0.000 C 
BRANCH  18  20
ATOM     19  C   UNL     1       4.418   1.166  -0.549  0.00  0.00    +0.000 C 
ATOM     20  C   UNL     1       4.108   0.366  -1.766  0.00  0.00    +0.000 C 
ENDBRANCH  18  20
ENDBRANCH  17  18
ENDBRANCH  14  17
ENDBRANCH  13  14
ENDBRANCH   1  13
TORSDOF 9
ENDMDL
MODEL 2
REMARK VINA RESULT:      -5.2      2.937      7.763
REMARK  Name = shuffle_control_esm0_ligand
REMARK  12 active torsions:
REMARK  status: ('A' for Active; 'I' for Inactive)
REMARK    1  A    between atoms: C_1  and  C_2
REMARK    2  A    between atoms: C_2  and  C_3
REMARK    3  A    between atoms: C_3  and  C_4
REMARK    4  A    between atoms: C_4  and  C_5
REMARK    5  A    between atoms: C_5  and  C_6
REMARK    6  A    between atoms: C_5  and  O_8
REMARK    7  A    between atoms: C_6  and  C_7
REMARK    8  A    between atoms: O_8  and  C_9
REMARK    9  A    between atoms: C_9  and  C_11
REMARK   10  A    between atoms: C_12  and  C_13
REMARK   11  A    between atoms: C_16  and  O_17
REMARK   12  A    between atoms: O_17  and  C_18
REMARK                            x       y       z     vdW  Elec       q    Type
REMARK                         _______ _______ _______ _____ _____    ______ ____
ROOT
ATOM      1  C   UNL     1       0.470   5.597  -4.274  0.00  0.00    +0.000 C 
ATOM      2  O   UNL     1       1.160   6.552  -4.444  0.00  0.00    +0.000 OA
ENDROOT
BRANCH   1   3
ATOM      3  C   UNL     1       0.965   4.300  -3.720  0.00  0.00    +0.000 C 
ATOM      4  C   UNL     1       2.189   4.194  -3.232  0.00  0.00    +0.000 C 
BRANCH   4   5
ATOM      5  C   UNL     1       2.786   2.901  -2.783  0.00  0.00    +0.000 A 
ATOM      6  C   UNL     1       2.234   1.733  -3.244  0.00  0.00    +0.000 A 
ATOM      7  C   UNL     1       2.730   0.501  -2.837  0.00  0.00    +0.000 A 
ATOM      8  C   UNL     1       3.801   0.433  -1.966  0.00  0.00    +0.000 A 
ATOM      9  C   UNL     1       4.368   1.621  -1.505  0.00  0.00    +0.000 A 
ATOM     10  C   UNL     1       3.865   2.858  -1.922  0.00  0.00    +0.000 A 
BRANCH   8  11
ATOM     11  O   UNL     1       4.306  -0.742  -1.536  0.00  0.00    +0.000 OA
ATOM     12  C   UNL     1       4.349  -1.855  -2.428  0.00  0.00    +0.000 C 
ENDBRANCH   8  11
ENDBRANCH   4   5
ENDBRANCH   1   3
BRANCH   1  13
ATOM     13  O   UNL     1      -0.849   5.606  -4.585  0.00  0.00    +0.000 OA
BRANCH  13  14
ATOM     14  C   UNL     1      -1.870   5.467  -3.602  0.00  0.00    +0.000 C 
BRANCH  14  15
ATOM     15  C   UNL     1      -2.815   4.318  -3.900  0.00  0.00    +0.000 C 
ATOM     16  C   UNL     1      -2.481   3.472  -5.094  0.00  0.00    +0.000 C 
ENDBRANCH  14  15
BRANCH  14  17
ATOM     17  C   UNL     1      -2.671   6.728  -3.591  0.00  0.00    +0.000 C 
BRANCH  17  18
ATOM     18  C   UNL     1      -3.057   7.233  -4.938  0.00  0.00    +0.000 C 
BRANCH  18  20
ATOM     19  C   UNL     1      -5.479   6.468  -5.180  0.00  0.00    +0.000 C 
ATOM     20  C   UNL     1      -4.498   7.588  -5.151  0.00  0.00    +0.000 C 
ENDBRANCH  18  20
ENDBRANCH  17  18
ENDBRANCH  14  17
ENDBRANCH  13  14
ENDBRANCH   1  13
TORSDOF 9
ENDMDL
MODEL 3
REMARK VINA RESULT:      -5.1      2.870      7.216
REMARK  Name = shuffle_control_esm0_ligand
REMARK  12 active torsions:
REMARK  status: ('A' for Active; 'I' for Inactive)
REMARK    1  A    between atoms: C_1  and  C_2
REMARK    2  A    between atoms: C_2  and  C_3
REMARK    3  A    between atoms: C_3  and  C_4
REMARK    4  A    between atoms: C_4  and  C_5
REMARK    5  A    between atoms: C_5  and  C_6
REMARK    6  A    between atoms: C_5  and  O_8
REMARK    7  A    between atoms: C_6  and  C_7
REMARK    8  A    between atoms: O_8  and  C_9
REMARK    9  A    between atoms: C_9  and  C_11
REMARK   10  A    between atoms: C_12  and  C_13
REMARK   11  A    between atoms: C_16  and  O_17
REMARK   12  A    between atoms: O_17  and  C_18
REMARK                            x       y       z     vdW  Elec       q    Type
REMARK                         _______ _______ _______ _____ _____    ______ ____
ROOT
ATOM      1  C   UNL     1      -0.433   6.443  -4.447  0.00  0.00    +0.000 C 
ATOM      2  O   UNL     1      -0.152   7.184  -5.336  0.00  0.00    +0.000 OA
ENDROOT
BRANCH   1   3
ATOM      3  C   UNL     1       0.545   5.524  -3.789  0.00  0.00    +0.000 C 
ATOM      4  C   UNL     1       0.836   4.350  -4.321  0.00  0.00    +0.000 C 
BRANCH   4   5
ATOM      5  C   UNL     1       1.704   3.336  -3.651  0.00  0.00    +0.000 A 
ATOM      6  C   UNL     1       2.735   3.778  -2.862  0.00  0.00    +0.000 A 
ATOM      7  C   UNL     1       3.590   2.881  -2.237  0.00  0.00    +0.000 A 
ATOM      8  C   UNL     1       3.408   1.520  -2.393  0.00  0.00    +0.000 A 
ATOM      9  C   UNL     1       2.354   1.069  -3.187  0.00  0.00    +0.000 A 
ATOM     10  C   UNL     1       1.495   1.980  -3.810  0.00  0.00    +0.000 A 
BRANCH   8  11
ATOM     11  O   UNL     1       4.224   0.614  -1.813  0.00  0.00    +0.000 OA
ATOM     12  C   UNL     1       3.695  -0.646  -1.403  0.00  0.00    +0.000 C 
ENDBRANCH   8  11
ENDBRANCH   4   5
ENDBRANCH   1   3
BRANCH   1  13
ATOM     13  O   UNL     1      -1.693   6.365  -3.955  0.00  0.00    +0.000 OA
BRANCH  13  14
ATOM     14  C   UNL     1      -2.720   5.613  -4.592  0.00  0.00    +0.000 C 
BRANCH  14  15
ATOM     15  C   UNL     1      -4.016   6.392  -4.726  0.00  0.00    +0.000 C 
ATOM     16  C   UNL     1      -5.235   5.600  -5.099  0.00  0.00    +0.000 C 
ENDBRANCH  14  15
BRANCH  14  17
ATOM     17  C   UNL     1      -2.996   4.408  -3.754  0.00  0.00    +0.000 C 
BRANCH  17  18
ATOM     18  C   UNL     1      -2.473   3.129  -4.310  0.00  0.00    +0.000 C 
BRANCH  18  20
ATOM     19  C   UNL     1      -1.522   2.694  -6.638  0.00  0.00    +0.000 C 
ATOM     20  C   UNL     1      -2.717   2.862  -5.765  0.00  0.00    +0.000 C 
ENDBRANCH  18  20
ENDBRANCH  17  18
ENDBRANCH  14  17
ENDBRANCH  13  14
ENDBRANCH   1  13
TORSDOF 9
ENDMDL
MODEL 4
REMARK VINA RESULT:      -5.1      2.372      7.510
REMARK  Name = shuffle_control_esm0_ligand
REMARK  12 active torsions:
REMARK  status: ('A' for Active; 'I' for Inactive)
REMARK    1  A    between atoms: C_1  and  C_2
REMARK    2  A    between atoms: C_2  and  C_3
REMARK    3  A    between atoms: C_3  and  C_4
REMARK    4  A    between atoms: C_4  and  C_5
REMARK    5  A    between atoms: C_5  and  C_6
REMARK    6  A    between atoms: C_5  and  O_8
REMARK    7  A    between atoms: C_6  and  C_7
REMARK    8  A    between atoms: O_8  and  C_9
REMARK    9  A    between atoms: C_9  and  C_11
REMARK   10  A    between atoms: C_12  and  C_13
REMARK   11  A    between atoms: C_16  and  O_17
REMARK   12  A    between atoms: O_17  and  C_18
REMARK                            x       y       z     vdW  Elec       q    Type
REMARK                         _______ _______ _______ _____ _____    ______ ____
ROOT
ATOM      1  C   UNL     1       0.699   5.714  -4.304  0.00  0.00    +0.000 C 
ATOM      2  O   UNL     1       1.346   6.371  -5.058  0.00  0.00    +0.000 OA
ENDROOT
BRANCH   1   3
ATOM      3  C   UNL     1       1.132   4.384  -3.777  0.00  0.00    +0.000 C 
ATOM      4  C   UNL     1       2.300   4.241  -3.175  0.00  0.00    +0.000 C 
BRANCH   4   5
ATOM      5  C   UNL     1       2.846   2.920  -2.742  0.00  0.00    +0.000 A 
ATOM      6  C   UNL     1       2.251   1.780  -3.220  0.00  0.00    +0.000 A 
ATOM      7  C   UNL     1       2.698   0.525  -2.829  0.00  0.00    +0.000 A 
ATOM      8  C   UNL     1       3.762   0.404  -1.955  0.00  0.00    +0.000 A 
ATOM      9  C   UNL     1       4.372   1.563  -1.475  0.00  0.00    +0.000 A 
ATOM     10  C   UNL     1       3.918   2.824  -1.877  0.00  0.00    +0.000 A 
BRANCH   8  11
ATOM     11  O   UNL     1       4.219  -0.796  -1.540  0.00  0.00    +0.000 OA
ATOM     12  C   UNL     1       4.263  -1.886  -2.459  0.00  0.00    +0.000 C 
ENDBRANCH   8  11
ENDBRANCH   4   5
ENDBRANCH   1   3
BRANCH   1  13
ATOM     13  O   UNL     1      -0.513   6.125  -3.859  0.00  0.00    +0.000 OA
BRANCH  13  14
ATOM     14  C   UNL     1      -1.684   6.078  -4.668  0.00  0.00    +0.000 C 
BRANCH  14  15
ATOM     15  C   UNL     1      -2.099   7.448  -5.174  0.00  0.00    +0.000 C 
ATOM     16  C   UNL     1      -1.682   8.622  -4.336  0.00  0.00    +0.000 C 
ENDBRANCH  14  15
BRANCH  14  17
ATOM     17  C   UNL     1      -2.799   5.542  -3.832  0.00  0.00    +0.000 C 
BRANCH  17  18
ATOM     18  C   UNL     1      -2.905   4.055  -3.813  0.00  0.00    +0.000 C 
BRANCH  18  20
ATOM     19  C   UNL     1      -1.618   2.013  -4.638  0.00  0.00    +0.000 C 
ATOM     20  C   UNL     1      -2.281   3.309  -4.953  0.00  0.00    +0.000 C 
ENDBRANCH  18  20
ENDBRANCH  17  18
ENDBRANCH  14  17
ENDBRANCH  13  14
ENDBRANCH   1  13
TORSDOF 9
ENDMDL
MODEL 5
REMARK VINA RESULT:      -5.1      2.615      4.225
REMARK  Name = shuffle_control_esm0_ligand
REMARK  12 active torsions:
REMARK  status: ('A' for Active; 'I' for Inactive)
REMARK    1  A    between atoms: C_1  and  C_2
REMARK    2  A    between atoms: C_2  and  C_3
REMARK    3  A    between atoms: C_3  and  C_4
REMARK    4  A    between atoms: C_4  and  C_5
REMARK    5  A    between atoms: C_5  and  C_6
REMARK    6  A    between atoms: C_5  and  O_8
REMARK    7  A    between atoms: C_6  and  C_7
REMARK    8  A    between atoms: O_8  and  C_9
REMARK    9  A    between atoms: C_9  and  C_11
REMARK   10  A    between atoms: C_12  and  C_13
REMARK   11  A    between atoms: C_16  and  O_17
REMARK   12  A    between atoms: O_17  and  C_18
REMARK                            x       y       z     vdW  Elec       q    Type
REMARK                         _______ _______ _______ _____ _____    ______ ____
ROOT
ATOM      1  C   UNL     1       2.466   0.763  -4.699  0.00  0.00    +0.000 C 
ATOM      2  O   UNL     1       2.729  -0.112  -5.462  0.00  0.00    +0.000 OA
ENDROOT
BRANCH   1   3
ATOM      3  C   UNL     1       1.109   1.374  -4.568  0.00  0.00    +0.000 C 
ATOM      4  C   UNL     1       0.933   2.674  -4.727  0.00  0.00    +0.000 C 
BRANCH   4   5
ATOM      5  C   UNL     1      -0.370   3.363  -4.484  0.00  0.00    +0.000 A 
ATOM      6  C   UNL     1      -0.352   4.693  -4.146  0.00  0.00    +0.000 A 
ATOM      7  C   UNL     1      -1.530   5.377  -3.882  0.00  0.00    +0.000 A 
ATOM      8  C   UNL     1      -2.748   4.729  -3.966  0.00  0.00    +0.000 A 
ATOM      9  C   UNL     1      -2.767   3.379  -4.318  0.00  0.00    +0.000 A 
ATOM     10  C   UNL     1      -1.576   2.698  -4.587  0.00  0.00    +0.000 A 
BRANCH   8  11
ATOM     11  O   UNL     1      -3.916   5.354  -3.705  0.00  0.00    +0.000 OA
ATOM     12  C   UNL     1      -4.757   5.750  -4.788  0.00  0.00    +0.000 C 
ENDBRANCH   8  11
ENDBRANCH   4   5
ENDBRANCH   1   3
BRANCH   1  13
ATOM     13  O   UNL     1       3.401   1.293  -3.873  0.00  0.00    +0.000 OA
BRANCH  13  14
ATOM     14  C   UNL     1       3.370   1.111  -2.462  0.00  0.00    +0.000 C 
BRANCH  14  15
ATOM     15  C   UNL     1       4.088   2.220  -1.714  0.00  0.00    +0.000 C 
ATOM     16  C   UNL     1       3.752   3.625  -2.123  0.00  0.00    +0.000 C 
ENDBRANCH  14  15
BRANCH  14  17
ATOM     17  C   UNL     1       4.063  -0.175  -2.149  0.00  0.00    +0.000 C 
BRANCH  17  18
ATOM     18  C   UNL     1       3.260  -1.135  -1.341  0.00  0.00    +0.000 C 
BRANCH  18  20
ATOM     19  C   UNL     1       1.466  -2.949  -1.327  0.00  0.00    +0.000 C 
ATOM     20  C   UNL     1       2.083  -1.778  -2.010  0.00  0.00    +0.000 C 
ENDBRANCH  18  20
ENDBRANCH  17  18
ENDBRANCH  14  17
ENDBRANCH  13  14
ENDBRANCH   1  13
TORSDOF 9
ENDMDL
MODEL 6
REMARK VINA RESULT:      -5.1      2.865      4.764
REMARK  Name = shuffle_control_esm0_ligand
REMARK  12 active torsions:
REMARK  status: ('A' for Active; 'I' for Inactive)
REMARK    1  A    between atoms: C_1  and  C_2
REMARK    2  A    between atoms: C_2  and  C_3
REMARK    3  A    between atoms: C_3  and  C_4
REMARK    4  A    between atoms: C_4  and  C_5
REMARK    5  A    between atoms: C_5  and  C_6
REMARK    6  A    between atoms: C_5  and  O_8
REMARK    7  A    between atoms: C_6  and  C_7
REMARK    8  A    between atoms: O_8  and  C_9
REMARK    9  A    between atoms: C_9  and  C_11
REMARK   10  A    between atoms: C_12  and  C_13
REMARK   11  A    between atoms: C_16  and  O_17
REMARK   12  A    between atoms: O_17  and  C_18
REMARK                            x       y       z     vdW  Elec       q    Type
REMARK                         _______ _______ _______ _____ _____    ______ ____
ROOT
ATOM      1  C   UNL     1       2.250   1.171  -3.985  0.00  0.00    +0.000 C 
ATOM      2  O   UNL     1       2.733   0.541  -4.872  0.00  0.00    +0.000 OA
ENDROOT
BRANCH   1   3
ATOM      3  C   UNL     1       0.874   1.752  -4.030  0.00  0.00    +0.000 C 
ATOM      4  C   UNL     1       0.680   3.011  -4.381  0.00  0.00    +0.000 C 
BRANCH   4   5
ATOM      5  C   UNL     1      -0.651   3.687  -4.323  0.00  0.00    +0.000 A 
ATOM      6  C   UNL     1      -0.696   5.010  -3.964  0.00  0.00    +0.000 A 
ATOM      7  C   UNL     1      -1.907   5.680  -3.865  0.00  0.00    +0.000 A 
ATOM      8  C   UNL     1      -3.093   5.025  -4.141  0.00  0.00    +0.000 A 
ATOM      9  C   UNL     1      -3.046   3.682  -4.515  0.00  0.00    +0.000 A 
ATOM     10  C   UNL     1      -1.821   3.015  -4.616  0.00  0.00    +0.000 A 
BRANCH   8  11
ATOM     11  O   UNL     1      -4.292   5.636  -4.045  0.00  0.00    +0.000 OA
ATOM     12  C   UNL     1      -5.241   5.489  -5.101  0.00  0.00    +0.000 C 
ENDBRANCH   8  11
ENDBRANCH   4   5
ENDBRANCH   1   3
BRANCH   1  13
ATOM     13  O   UNL     1       2.929   1.427  -2.839  0.00  0.00    +0.000 OA
BRANCH  13  14
ATOM     14  C   UNL     1       4.253   1.949  -2.833  0.00  0.00    +0.000 C 
BRANCH  14  15
ATOM     15  C   UNL     1       4.823   2.076  -1.432  0.00  0.00    +0.000 C 
ATOM     16  C   UNL     1       4.399   1.030  -0.442  0.00  0.00    +0.000 C 
ENDBRANCH  14  15
BRANCH  14  17
ATOM     17  C   UNL     1       4.211   3.315  -3.436  0.00  0.00    +0.000 C 
BRANCH  17  18
ATOM     18  C   UNL     1       3.991   4.420  -2.461  0.00  0.00    +0.000 C 
BRANCH  18  20
ATOM     19  C   UNL     1       2.980   6.745  -2.174  0.00  0.00    +0.000 C 
ATOM     20  C   UNL     1       2.870   5.374  -2.746  0.00  0.00    +0.000 C 
ENDBRANCH  18  20
ENDBRANCH  17  18
ENDBRANCH  14  17
ENDBRANCH  13  14
ENDBRANCH   1  13
TORSDOF 9
ENDMDL
MODEL 7
REMARK VINA RESULT:      -5.0      4.357      7.978
REMARK  Name = shuffle_control_esm0_ligand
REMARK  12 active torsions:
REMARK  status: ('A' for Active; 'I' for Inactive)
REMARK    1  A    between atoms: C_1  and  C_2
REMARK    2  A    between atoms: C_2  and  C_3
REMARK    3  A    between atoms: C_3  and  C_4
REMARK    4  A    between atoms: C_4  and  C_5
REMARK    5  A    between atoms: C_5  and  C_6
REMARK    6  A    between atoms: C_5  and  O_8
REMARK    7  A    between atoms: C_6  and  C_7
REMARK    8  A    between atoms: O_8  and  C_9
REMARK    9  A    between atoms: C_9  and  C_11
REMARK   10  A    between atoms: C_12  and  C_13
REMARK   11  A    between atoms: C_16  and  O_17
REMARK   12  A    between atoms: O_17  and  C_18
REMARK                            x       y       z     vdW  Elec       q    Type
REMARK                         _______ _______ _______ _____ _____    ______ ____
ROOT
ATOM      1  C   UNL     1      -2.814   3.323  -5.333  0.00  0.00    +0.000 C 
ATOM      2  O   UNL     1      -2.981   2.892  -6.430  0.00  0.00    +0.000 OA
ENDROOT
BRANCH   1   3
ATOM      3  C   UNL     1      -1.611   3.027  -4.497  0.00  0.00    +0.000 C 
ATOM      4  C   UNL     1      -0.477   3.680  -4.685  0.00  0.00    +0.000 C 
BRANCH   4   5
ATOM      5  C   UNL     1       0.792   3.345  -3.974  0.00  0.00    +0.000 A 
ATOM      6  C   UNL     1       1.544   4.372  -3.462  0.00  0.00    +0.000 A 
ATOM      7  C   UNL     1       2.748   4.122  -2.817  0.00  0.00    +0.000 A 
ATOM      8  C   UNL     1       3.204   2.826  -2.669  0.00  0.00    +0.000 A 
ATOM      9  C   UNL     1       2.435   1.780  -3.180  0.00  0.00    +0.000 A 
ATOM     10  C   UNL     1       1.222   2.041  -3.826  0.00  0.00    +0.000 A 
BRANCH   8  11
ATOM     11  O   UNL     1       4.373   2.540  -2.059  0.00  0.00    +0.000 OA
ATOM     12  C   UNL     1       4.412   1.525  -1.056  0.00  0.00    +0.000 C 
ENDBRANCH   8  11
ENDBRANCH   4   5
ENDBRANCH   1   3
BRANCH   1  13
ATOM     13  O   UNL     1      -3.726   4.128  -4.736  0.00  0.00    +0.000 OA
BRANCH  13  14
ATOM     14  C   UNL     1      -3.703   5.545  -4.870  0.00  0.00    +0.000 C 
BRANCH  14  15
ATOM     15  C   UNL     1      -3.092   6.236  -3.664  0.00  0.00    +0.000 C 
ATOM     16  C   UNL     1      -1.862   7.057  -3.919  0.00  0.00    +0.000 C 
ENDBRANCH  14  15
BRANCH  14  17
ATOM     17  C   UNL     1      -5.115   6.017  -5.001  0.00  0.00    +0.000 C 
BRANCH  17  18
ATOM     18  C   UNL     1      -5.293   7.211  -5.875  0.00  0.00    +0.000 C 
BRANCH  18  20
ATOM     19  C   UNL     1      -7.484   8.281  -5.123  0.00  0.00    +0.000 C 
ATOM     20  C   UNL     1      -6.008   8.391  -5.288  0.00  0.00    +0.000 C 
ENDBRANCH  18  20
ENDBRANCH  17  18
ENDBRANCH  14  17
ENDBRANCH  13  14
ENDBRANCH   1  13
TORSDOF 9
ENDMDL
MODEL 8
REMARK VINA RESULT:      -5.0      2.648      3.474
REMARK  Name = shuffle_control_esm0_ligand
REMARK  12 active torsions:
REMARK  status: ('A' for Active; 'I' for Inactive)
REMARK    1  A    between atoms: C_1  and  C_2
REMARK    2  A    between atoms: C_2  and  C_3
REMARK    3  A    between atoms: C_3  and  C_4
REMARK    4  A    between atoms: C_4  and  C_5
REMARK    5  A    between atoms: C_5  and  C_6
REMARK    6  A    between atoms: C_5  and  O_8
REMARK    7  A    between atoms: C_6  and  C_7
REMARK    8  A    between atoms: O_8  and  C_9
REMARK    9  A    between atoms: C_9  and  C_11
REMARK   10  A    between atoms: C_12  and  C_13
REMARK   11  A    between atoms: C_16  and  O_17
REMARK   12  A    between atoms: O_17  and  C_18
REMARK                            x       y       z     vdW  Elec       q    Type
REMARK                         _______ _______ _______ _____ _____    ______ ____
ROOT
ATOM      1  C   UNL     1       1.690   0.455  -4.381  0.00  0.00    +0.000 C 
ATOM      2  O   UNL     1       2.406   0.314  -5.322  0.00  0.00    +0.000 OA
ENDROOT
BRANCH   1   3
ATOM      3  C   UNL     1       0.434   1.265  -4.405  0.00  0.00    +0.000 C 
ATOM      4  C   UNL     1       0.477   2.584  -4.351  0.00  0.00    +0.000 C 
BRANCH   4   5
ATOM      5  C   UNL     1      -0.740   3.443  -4.242  0.00  0.00    +0.000 A 
ATOM      6  C   UNL     1      -1.966   2.869  -4.463  0.00  0.00    +0.000 A 
ATOM      7  C   UNL     1      -3.129   3.625  -4.403  0.00  0.00    +0.000 A 
ATOM      8  C   UNL     1      -3.070   4.974  -4.107  0.00  0.00    +0.000 A 
ATOM      9  C   UNL     1      -1.824   5.557  -3.874  0.00  0.00    +0.000 A 
ATOM     10  C   UNL     1      -0.658   4.787  -3.933  0.00  0.00    +0.000 A 
BRANCH   8  11
ATOM     11  O   UNL     1      -4.174   5.748  -4.051  0.00  0.00    +0.000 OA
ATOM     12  C   UNL     1      -5.171   5.623  -5.065  0.00  0.00    +0.000 C 
ENDBRANCH   8  11
ENDBRANCH   4   5
ENDBRANCH   1   3
BRANCH   1  13
ATOM     13  O   UNL     1       1.966  -0.115  -3.183  0.00  0.00    +0.000 OA
BRANCH  13  14
ATOM     14  C   UNL     1       2.867  -1.208  -3.043  0.00  0.00    +0.000 C 
BRANCH  14  15
ATOM     15  C   UNL     1       2.311  -2.314  -2.164  0.00  0.00    +0.000 C 
ATOM     16  C   UNL     1       0.815  -2.436  -2.113  0.00  0.00    +0.000 C 
ENDBRANCH  14  15
BRANCH  14  17
ATOM     17  C   UNL     1       4.115  -0.696  -2.399  0.00  0.00    +0.000 C 
BRANCH  17  18
ATOM     18  C   UNL     1       3.905  -0.006  -1.095  0.00  0.00    +0.000 C 
BRANCH  18  20
ATOM     19  C   UNL     1       4.138   2.348  -2.050  0.00  0.00    +0.000 C 
ATOM     20  C   UNL     1       4.449   1.384  -0.958  0.00  0.00    +0.000 C 
ENDBRANCH  18  20
ENDBRANCH  17  18
ENDBRANCH  14  17
ENDBRANCH  13  14
ENDBRANCH   1  13
TORSDOF 9
ENDMDL
MODEL 9
REMARK VINA RESULT:      -5.0      3.386      5.688
REMARK  Name = shuffle_control_esm0_ligand
REMARK  12 active torsions:
REMARK  status: ('A' for Active; 'I' for Inactive)
REMARK    1  A    between atoms: C_1  and  C_2
REMARK    2  A    between atoms: C_2  and  C_3
REMARK    3  A    between atoms: C_3  and  C_4
REMARK    4  A    between atoms: C_4  and  C_5
REMARK    5  A    between atoms: C_5  and  C_6
REMARK    6  A    between atoms: C_5  and  O_8
REMARK    7  A    between atoms: C_6  and  C_7
REMARK    8  A    between atoms: O_8  and  C_9
REMARK    9  A    between atoms: C_9  and  C_11
REMARK   10  A    between atoms: C_12  and  C_13
REMARK   11  A    between atoms: C_16  and  O_17
REMARK   12  A    between atoms: O_17  and  C_18
REMARK                            x       y       z     vdW  Elec       q    Type
REMARK                         _______ _______ _______ _____ _____    ______ ____
ROOT
ATOM      1  C   UNL     1       2.050   5.468  -3.719  0.00  0.00    +0.000 C 
ATOM      2  O   UNL     1       2.942   5.945  -4.346  0.00  0.00    +0.000 OA
ENDROOT
BRANCH   1   3
ATOM      3  C   UNL     1       0.623   5.893  -3.845  0.00  0.00    +0.000 C 
ATOM      4  C   UNL     1      -0.344   4.998  -3.955  0.00  0.00    +0.000 C 
BRANCH   4   5
ATOM      5  C   UNL     1      -1.771   5.357  -4.211  0.00  0.00    +0.000 A 
ATOM      6  C   UNL     1      -2.676   4.342  -4.393  0.00  0.00    +0.000 A 
ATOM      7  C   UNL     1      -4.010   4.617  -4.663  0.00  0.00    +0.000 A 
ATOM      8  C   UNL     1      -4.451   5.924  -4.743  0.00  0.00    +0.000 A 
ATOM      9  C   UNL     1      -3.533   6.956  -4.549  0.00  0.00    +0.000 A 
ATOM     10  C   UNL     1      -2.192   6.671  -4.274  0.00  0.00    +0.000 A 
BRANCH   8  11
ATOM     11  O   UNL     1      -5.736   6.234  -5.015  0.00  0.00    +0.000 OA
ATOM     12  C   UNL     1      -6.057   7.540  -5.493  0.00  0.00    +0.000 C 
ENDBRANCH   8  11
ENDBRANCH   4   5
ENDBRANCH   1   3
BRANCH   1  13
ATOM     13  O   UNL     1       2.263   4.483  -2.812  0.00  0.00    +0.000 OA
BRANCH  13  14
ATOM     14  C   UNL     1       2.858   3.237  -3.159  0.00  0.00    +0.000 C 
BRANCH  14  15
ATOM     15  C   UNL     1       1.840   2.118  -3.284  0.00  0.00    +0.000 C 
ATOM     16  C   UNL     1       1.279   1.877  -4.655  0.00  0.00    +0.000 C 
ENDBRANCH  14  15
BRANCH  14  17
ATOM     17  C   UNL     1       3.814   2.866  -2.072  0.00  0.00    +0.000 C 
BRANCH  17  18
ATOM     18  C   UNL     1       4.385   1.495  -2.185  0.00  0.00    +0.000 C 
BRANCH  18  20
ATOM     19  C   UNL     1       3.572  -0.797  -1.414  0.00  0.00    +0.000 C 
ATOM     20  C   UNL     1       4.115   0.543  -1.059  0.00  0.00    +0.000 C 
ENDBRANCH  18  20
ENDBRANCH  17  18
ENDBRANCH  14  17
ENDBRANCH  13  14
ENDBRANCH   1  13
TORSDOF 9
ENDMDL
