REMARK  Name = s2_esm2_control_ligand
REMARK  12 active torsions:
REMARK  status: ('A' for Active; 'I' for Inactive)
REMARK    1  A    between atoms: C_1  and  C_2
REMARK    2  A    between atoms: C_2  and  C_3
REMARK    3  A    between atoms: C_3  and  C_4
REMARK    4  A    between atoms: C_4  and  C_5
REMARK    5  A    between atoms: C_5  and  C_6
REMARK    6  A    between atoms: C_5  and  O_8
REMARK    7  A    between atoms: C_6  and  C_7
REMARK    8  A    between atoms: O_8  and  C_9
REMARK    9  A    between atoms: C_9  and  C_11
REMARK   10  A    between atoms: C_12  and  C_13
REMARK   11  A    between atoms: C_16  and  O_17
REMARK   12  A    between atoms: O_17  and  C_18
REMARK                            x       y       z     vdW  Elec       q    Type
REMARK                         _______ _______ _______ _____ _____    ______ ____
ROOT
ATOM      1  C   UNL     1      -4.642  -0.673   3.207  0.00  0.00    +0.000 C 
ATOM      2  O   UNL     1      -3.474  -0.905   3.372  0.00  0.00    +0.000 OA
ENDROOT
BRANCH   1   3
ATOM      3  C   UNL     1      -5.393  -1.071   1.989  0.00  0.00    +0.000 C 
ATOM      4  C   UNL     1      -4.731  -1.751   1.011  0.00  0.00    +0.000 C 
BRANCH   4   5
ATOM      5  C   UNL     1      -5.377  -2.238  -0.224  0.00  0.00    +0.000 A 
ATOM      6  C   UNL     1      -4.589  -2.877  -1.164  0.00  0.00    +0.000 A 
ATOM      7  C   UNL     1      -5.142  -3.368  -2.332  0.00  0.00    +0.000 A 
ATOM      8  C   UNL     1      -6.483  -3.229  -2.578  0.00  0.00    +0.000 A 
ATOM      9  C   UNL     1      -7.272  -2.596  -1.644  0.00  0.00    +0.000 A 
ATOM     10  C   UNL     1      -6.716  -2.101  -0.471  0.00  0.00    +0.000 A 
BRANCH   8  11
ATOM     11  O   UNL     1      -6.975  -3.731  -3.735  0.00  0.00    +0.000 OA
ATOM     12  C   UNL     1      -8.374  -3.693  -3.986  0.00  0.00    +0.000 C 
ENDBRANCH   8  11
ENDBRANCH   4   5
ENDBRANCH   1   3
BRANCH   1  13
ATOM     13  O   UNL     1      -5.364  -0.038   4.153  0.00  0.00    +0.000 OA
BRANCH  13  14
ATOM     14  C   UNL     1      -4.746   0.320   5.377  0.00  0.00    +0.000 C 
BRANCH  14  15
ATOM     15  C   UNL     1      -4.956   1.815   5.607  0.00  0.00    +0.000 C 
ATOM     16  C   UNL     1      -3.671   2.621   5.682  0.00  0.00    +0.000 C 
ENDBRANCH  14  15
BRANCH  14  17
ATOM     17  C   UNL     1      -5.366  -0.464   6.508  0.00  0.00    +0.000 C 
BRANCH  17  18
ATOM     18  C   UNL     1      -5.398  -1.943   6.277  0.00  0.00    +0.000 C 
BRANCH  18  20
ATOM     19  C   UNL     1      -6.068  -4.178   7.159  0.00  0.00    +0.000 C 
ATOM     20  C   UNL     1      -5.959  -2.686   7.453  0.00  0.00    +0.000 C 
ENDBRANCH  18  20
ENDBRANCH  17  18
ENDBRANCH  14  17
ENDBRANCH  13  14
ENDBRANCH   1  13
TORSDOF 9
