MODEL 1
REMARK VINA RESULT:      -5.0      0.000      0.000
REMARK  Name = s2_esm2_control_ligand
REMARK  12 active torsions:
REMARK  status: ('A' for Active; 'I' for Inactive)
REMARK    1  A    between atoms: C_1  and  C_2
REMARK    2  A    between atoms: C_2  and  C_3
REMARK    3  A    between atoms: C_3  and  C_4
REMARK    4  A    between atoms: C_4  and  C_5
REMARK    5  A    between atoms: C_5  and  C_6
REMARK    6  A    between atoms: C_5  and  O_8
REMARK    7  A    between atoms: C_6  and  C_7
REMARK    8  A    between atoms: O_8  and  C_9
REMARK    9  A    between atoms: C_9  and  C_11
REMARK   10  A    between atoms: C_12  and  C_13
REMARK   11  A    between atoms: C_16  and  O_17
REMARK   12  A    between atoms: O_17  and  C_18
REMARK                            x       y       z     vdW  Elec       q    Type
REMARK                         _______ _______ _______ _____ _____    ______ ____
ROOT
ATOM      1  C   UNL     1      -4.399   2.378   5.324  0.00  0.00    +0.000 C 
ATOM      2  O   UNL     1      -5.263   3.214   5.312  0.00  0.00    +0.000 OA
ENDROOT
BRANCH   1   3
ATOM      3  C   UNL     1      -3.008   2.643   5.772  0.00  0.00    +0.000 C 
ATOM      4  C   UNL     1      -2.811   3.520   6.796  0.00  0.00    +0.000 C 
BRANCH   4   5
ATOM      5  C   UNL     1      -1.482   3.832   7.358  0.00  0.00    +0.000 A 
ATOM      6  C   UNL     1      -1.408   4.211   8.686  0.00  0.00    +0.000 A 
ATOM      7  C   UNL     1      -0.189   4.500   9.270  0.00  0.00    +0.000 A 
ATOM      8  C   UNL     1       0.969   4.416   8.542  0.00  0.00    +0.000 A 
ATOM      9  C   UNL     1       0.900   4.036   7.220  0.00  0.00    +0.000 A 
ATOM     10  C   UNL     1      -0.325   3.748   6.632  0.00  0.00    +0.000 A 
BRANCH   8  11
ATOM     11  O   UNL     1       2.136   4.706   9.162  0.00  0.00    +0.000 OA
ATOM     12  C   UNL     1       3.310   4.938   8.393  0.00  0.00    +0.000 C 
ENDBRANCH   8  11
ENDBRANCH   4   5
ENDBRANCH   1   3
BRANCH   1  13
ATOM     13  O   UNL     1      -4.655   1.110   4.941  0.00  0.00    +0.000 OA
BRANCH  13  14
ATOM     14  C   UNL     1      -4.010   0.039   5.607  0.00  0.00    +0.000 C 
BRANCH  14  15
ATOM     15  C   UNL     1      -4.919  -0.451   6.732  0.00  0.00    +0.000 C 
ATOM     16  C   UNL     1      -5.307  -1.916   6.628  0.00  0.00    +0.000 C 
ENDBRANCH  14  15
BRANCH  14  17
ATOM     17  C   UNL     1      -3.752  -1.084   4.632  0.00  0.00    +0.000 C 
BRANCH  17  18
ATOM     18  C   UNL     1      -3.430  -0.623   3.245  0.00  0.00    +0.000 C 
BRANCH  18  20
ATOM     19  C   UNL     1      -5.198  -2.335   2.835  0.00  0.00    +0.000 C 
ATOM     20  C   UNL     1      -4.346  -1.229   2.222  0.00  0.00    +0.000 C 
ENDBRANCH  18  20
ENDBRANCH  17  18
ENDBRANCH  14  17
ENDBRANCH  13  14
ENDBRANCH   1  13
TORSDOF 9
ENDMDL
MODEL 2
REMARK VINA RESULT:      -5.0      2.053      7.395
REMARK  Name = s2_esm2_control_ligand
REMARK  12 active torsions:
REMARK  status: ('A' for Active; 'I' for Inactive)
REMARK    1  A    between atoms: C_1  and  C_2
REMARK    2  A    between atoms: C_2  and  C_3
REMARK    3  A    between atoms: C_3  and  C_4
REMARK    4  A    between atoms: C_4  and  C_5
REMARK    5  A    between atoms: C_5  and  C_6
REMARK    6  A    between atoms: C_5  and  O_8
REMARK    7  A    between atoms: C_6  and  C_7
REMARK    8  A    between atoms: O_8  and  C_9
REMARK    9  A    between atoms: C_9  and  C_11
REMARK   10  A    between atoms: C_12  and  C_13
REMARK   11  A    between atoms: C_16  and  O_17
REMARK   12  A    between atoms: O_17  and  C_18
REMARK                            x       y       z     vdW  Elec       q    Type
REMARK                         _______ _______ _______ _____ _____    ______ ____
ROOT
ATOM      1  C   UNL     1      -2.903   4.471   6.383  0.00  0.00    +0.000 C 
ATOM      2  O   UNL     1      -3.797   5.269   6.281  0.00  0.00    +0.000 OA
ENDROOT
BRANCH   1   3
ATOM      3  C   UNL     1      -3.121   3.013   6.562  0.00  0.00    +0.000 C 
ATOM      4  C   UNL     1      -3.829   2.341   5.611  0.00  0.00    +0.000 C 
BRANCH   4   5
ATOM      5  C   UNL     1      -4.075   0.886   5.655  0.00  0.00    +0.000 A 
ATOM      6  C   UNL     1      -3.497   0.097   4.677  0.00  0.00    +0.000 A 
ATOM      7  C   UNL     1      -3.679  -1.274   4.676  0.00  0.00    +0.000 A 
ATOM      8  C   UNL     1      -4.438  -1.874   5.647  0.00  0.00    +0.000 A 
ATOM      9  C   UNL     1      -5.014  -1.093   6.624  0.00  0.00    +0.000 A 
ATOM     10  C   UNL     1      -4.832   0.284   6.624  0.00  0.00    +0.000 A 
BRANCH   8  11
ATOM     11  O   UNL     1      -4.582  -3.219   5.603  0.00  0.00    +0.000 OA
ATOM     12  C   UNL     1      -4.934  -3.933   6.782  0.00  0.00    +0.000 C 
ENDBRANCH   8  11
ENDBRANCH   4   5
ENDBRANCH   1   3
BRANCH   1  13
ATOM     13  O   UNL     1      -1.613   4.862   6.318  0.00  0.00    +0.000 OA
BRANCH  13  14
ATOM     14  C   UNL     1      -0.614   3.911   5.992  0.00  0.00    +0.000 C 
BRANCH  14  15
ATOM     15  C   UNL     1      -0.234   4.092   4.524  0.00  0.00    +0.000 C 
ATOM     16  C   UNL     1      -0.477   5.490   3.984  0.00  0.00    +0.000 C 
ENDBRANCH  14  15
BRANCH  14  17
ATOM     17  C   UNL     1       0.598   4.129   6.864  0.00  0.00    +0.000 C 
BRANCH  17  18
ATOM     18  C   UNL     1       0.483   3.523   8.229  0.00  0.00    +0.000 C 
BRANCH  18  20
ATOM     19  C   UNL     1      -1.123   4.489   9.875  0.00  0.00    +0.000 C 
ATOM     20  C   UNL     1       0.284   4.562   9.292  0.00  0.00    +0.000 C 
ENDBRANCH  18  20
ENDBRANCH  17  18
ENDBRANCH  14  17
ENDBRANCH  13  14
ENDBRANCH   1  13
TORSDOF 9
ENDMDL
MODEL 3
REMARK VINA RESULT:      -4.9      1.893      7.677
REMARK  Name = s2_esm2_control_ligand
REMARK  12 active torsions:
REMARK  status: ('A' for Active; 'I' for Inactive)
REMARK    1  A    between atoms: C_1  and  C_2
REMARK    2  A    between atoms: C_2  and  C_3
REMARK    3  A    between atoms: C_3  and  C_4
REMARK    4  A    between atoms: C_4  and  C_5
REMARK    5  A    between atoms: C_5  and  C_6
REMARK    6  A    between atoms: C_5  and  O_8
REMARK    7  A    between atoms: C_6  and  C_7
REMARK    8  A    between atoms: O_8  and  C_9
REMARK    9  A    between atoms: C_9  and  C_11
REMARK   10  A    between atoms: C_12  and  C_13
REMARK   11  A    between atoms: C_16  and  O_17
REMARK   12  A    between atoms: O_17  and  C_18
REMARK                            x       y       z     vdW  Elec       q    Type
REMARK                         _______ _______ _______ _____ _____    ______ ____
ROOT
ATOM      1  C   UNL     1      -2.404   4.282   5.932  0.00  0.00    +0.000 C 
ATOM      2  O   UNL     1      -3.003   5.070   5.250  0.00  0.00    +0.000 OA
ENDROOT
BRANCH   1   3
ATOM      3  C   UNL     1      -2.504   2.810   5.764  0.00  0.00    +0.000 C 
ATOM      4  C   UNL     1      -3.730   2.225   5.872  0.00  0.00    +0.000 C 
BRANCH   4   5
ATOM      5  C   UNL     1      -3.965   0.780   5.683  0.00  0.00    +0.000 A 
ATOM      6  C   UNL     1      -4.739   0.117   6.618  0.00  0.00    +0.000 A 
ATOM      7  C   UNL     1      -5.005  -1.233   6.484  0.00  0.00    +0.000 A 
ATOM      8  C   UNL     1      -4.505  -1.938   5.420  0.00  0.00    +0.000 A 
ATOM      9  C   UNL     1      -3.736  -1.281   4.486  0.00  0.00    +0.000 A 
ATOM     10  C   UNL     1      -3.467   0.075   4.621  0.00  0.00    +0.000 A 
BRANCH   8  11
ATOM     11  O   UNL     1      -4.799  -3.256   5.334  0.00  0.00    +0.000 OA
ATOM     12  C   UNL     1      -4.397  -4.142   6.371  0.00  0.00    +0.000 C 
ENDBRANCH   8  11
ENDBRANCH   4   5
ENDBRANCH   1   3
BRANCH   1  13
ATOM     13  O   UNL     1      -1.567   4.700   6.903  0.00  0.00    +0.000 OA
BRANCH  13  14
ATOM     14  C   UNL     1      -0.558   3.825   7.378  0.00  0.00    +0.000 C 
BRANCH  14  15
ATOM     15  C   UNL     1       0.793   4.317   6.863  0.00  0.00    +0.000 C 
ATOM     16  C   UNL     1       1.923   4.203   7.870  0.00  0.00    +0.000 C 
ENDBRANCH  14  15
BRANCH  14  17
ATOM     17  C   UNL     1      -0.559   3.820   8.887  0.00  0.00    +0.000 C 
BRANCH  17  18
ATOM     18  C   UNL     1      -1.601   4.705   9.498  0.00  0.00    +0.000 C 
BRANCH  18  20
ATOM     19  C   UNL     1       0.197   5.465  11.051  0.00  0.00    +0.000 C 
ATOM     20  C   UNL     1      -1.269   5.072  10.914  0.00  0.00    +0.000 C 
ENDBRANCH  18  20
ENDBRANCH  17  18
ENDBRANCH  14  17
ENDBRANCH  13  14
ENDBRANCH   1  13
TORSDOF 9
ENDMDL
MODEL 4
REMARK VINA RESULT:      -4.9      6.114      9.990
REMARK  Name = s2_esm2_control_ligand
REMARK  12 active torsions:
REMARK  status: ('A' for Active; 'I' for Inactive)
REMARK    1  A    between atoms: C_1  and  C_2
REMARK    2  A    between atoms: C_2  and  C_3
REMARK    3  A    between atoms: C_3  and  C_4
REMARK    4  A    between atoms: C_4  and  C_5
REMARK    5  A    between atoms: C_5  and  C_6
REMARK    6  A    between atoms: C_5  and  O_8
REMARK    7  A    between atoms: C_6  and  C_7
REMARK    8  A    between atoms: O_8  and  C_9
REMARK    9  A    between atoms: C_9  and  C_11
REMARK   10  A    between atoms: C_12  and  C_13
REMARK   11  A    between atoms: C_16  and  O_17
REMARK   12  A    between atoms: O_17  and  C_18
REMARK                            x       y       z     vdW  Elec       q    Type
REMARK                         _______ _______ _______ _____ _____    ______ ____
ROOT
ATOM      1  C   UNL     1      -5.200  -3.487  -2.548  0.00  0.00    +0.000 C 
ATOM      2  O   UNL     1      -6.305  -3.349  -3.001  0.00  0.00    +0.000 OA
ENDROOT
BRANCH   1   3
ATOM      3  C   UNL     1      -4.726  -2.802  -1.318  0.00  0.00    +0.000 C 
ATOM      4  C   UNL     1      -5.425  -2.987  -0.162  0.00  0.00    +0.000 C 
BRANCH   4   5
ATOM      5  C   UNL     1      -5.030  -2.396   1.132  0.00  0.00    +0.000 A 
ATOM      6  C   UNL     1      -4.164  -1.318   1.120  0.00  0.00    +0.000 A 
ATOM      7  C   UNL     1      -3.772  -0.715   2.301  0.00  0.00    +0.000 A 
ATOM      8  C   UNL     1      -4.237  -1.176   3.505  0.00  0.00    +0.000 A 
ATOM      9  C   UNL     1      -5.102  -2.247   3.521  0.00  0.00    +0.000 A 
ATOM     10  C   UNL     1      -5.494  -2.855   2.335  0.00  0.00    +0.000 A 
BRANCH   8  11
ATOM     11  O   UNL     1      -3.826  -0.547   4.631  0.00  0.00    +0.000 OA
ATOM     12  C   UNL     1      -4.436   0.676   5.023  0.00  0.00    +0.000 C 
ENDBRANCH   8  11
ENDBRANCH   4   5
ENDBRANCH   1   3
BRANCH   1  13
ATOM     13  O   UNL     1      -4.307  -4.311  -3.134  0.00  0.00    +0.000 OA
BRANCH  13  14
ATOM     14  C   UNL     1      -3.835  -4.012  -4.437  0.00  0.00    +0.000 C 
BRANCH  14  15
ATOM     15  C   UNL     1      -2.339  -3.720  -4.356  0.00  0.00    +0.000 C 
ATOM     16  C   UNL     1      -1.676  -4.213  -3.081  0.00  0.00    +0.000 C 
ENDBRANCH  14  15
BRANCH  14  17
ATOM     17  C   UNL     1      -4.079  -5.190  -5.349  0.00  0.00    +0.000 C 
BRANCH  17  18
ATOM     18  C   UNL     1      -5.068  -4.920  -6.440  0.00  0.00    +0.000 C 
BRANCH  18  20
ATOM     19  C   UNL     1      -5.386  -2.969  -7.960  0.00  0.00    +0.000 C 
ATOM     20  C   UNL     1      -5.438  -3.469  -6.521  0.00  0.00    +0.000 C 
ENDBRANCH  18  20
ENDBRANCH  17  18
ENDBRANCH  14  17
ENDBRANCH  13  14
ENDBRANCH   1  13
TORSDOF 9
ENDMDL
MODEL 5
REMARK VINA RESULT:      -4.9      6.232     10.481
REMARK  Name = s2_esm2_control_ligand
REMARK  12 active torsions:
REMARK  status: ('A' for Active; 'I' for Inactive)
REMARK    1  A    between atoms: C_1  and  C_2
REMARK    2  A    between atoms: C_2  and  C_3
REMARK    3  A    between atoms: C_3  and  C_4
REMARK    4  A    between atoms: C_4  and  C_5
REMARK    5  A    between atoms: C_5  and  C_6
REMARK    6  A    between atoms: C_5  and  O_8
REMARK    7  A    between atoms: C_6  and  C_7
REMARK    8  A    between atoms: O_8  and  C_9
REMARK    9  A    between atoms: C_9  and  C_11
REMARK   10  A    between atoms: C_12  and  C_13
REMARK   11  A    between atoms: C_16  and  O_17
REMARK   12  A    between atoms: O_17  and  C_18
REMARK                            x       y       z     vdW  Elec       q    Type
REMARK                         _______ _______ _______ _____ _____    ______ ____
ROOT
ATOM      1  C   UNL     1      -6.518  -4.051  -3.306  0.00  0.00    +0.000 C 
ATOM      2  O   UNL     1      -7.289  -4.971  -3.246  0.00  0.00    +0.000 OA
ENDROOT
BRANCH   1   3
ATOM      3  C   UNL     1      -6.273  -3.111  -2.182  0.00  0.00    +0.000 C 
ATOM      4  C   UNL     1      -5.429  -3.498  -1.185  0.00  0.00    +0.000 C 
BRANCH   4   5
ATOM      5  C   UNL     1      -5.072  -2.638  -0.039  0.00  0.00    +0.000 A 
ATOM      6  C   UNL     1      -5.505  -3.014   1.219  0.00  0.00    +0.000 A 
ATOM      7  C   UNL     1      -5.188  -2.256   2.331  0.00  0.00    +0.000 A 
ATOM      8  C   UNL     1      -4.438  -1.117   2.204  0.00  0.00    +0.000 A 
ATOM      9  C   UNL     1      -4.002  -0.739   0.953  0.00  0.00    +0.000 A 
ATOM     10  C   UNL     1      -4.323  -1.500  -0.164  0.00  0.00    +0.000 A 
BRANCH   8  11
ATOM     11  O   UNL     1      -4.151  -0.413   3.324  0.00  0.00    +0.000 OA
ATOM     12  C   UNL     1      -2.966  -0.696   4.056  0.00  0.00    +0.000 C 
ENDBRANCH   8  11
ENDBRANCH   4   5
ENDBRANCH   1   3
BRANCH   1  13
ATOM     13  O   UNL     1      -5.796  -3.823  -4.422  0.00  0.00    +0.000 OA
BRANCH  13  14
ATOM     14  C   UNL     1      -5.048  -4.881  -4.995  0.00  0.00    +0.000 C 
BRANCH  14  15
ATOM     15  C   UNL     1      -4.694  -4.502  -6.432  0.00  0.00    +0.000 C 
ATOM     16  C   UNL     1      -5.308  -3.195  -6.901  0.00  0.00    +0.000 C 
ENDBRANCH  14  15
BRANCH  14  17
ATOM     17  C   UNL     1      -3.785  -5.101  -4.198  0.00  0.00    +0.000 C 
BRANCH  17  18
ATOM     18  C   UNL     1      -2.797  -3.981  -4.301  0.00  0.00    +0.000 C 
BRANCH  18  20
ATOM     19  C   UNL     1      -0.876  -4.862  -2.976  0.00  0.00    +0.000 C 
ATOM     20  C   UNL     1      -1.990  -3.823  -3.047  0.00  0.00    +0.000 C 
ENDBRANCH  18  20
ENDBRANCH  17  18
ENDBRANCH  14  17
ENDBRANCH  13  14
ENDBRANCH   1  13
TORSDOF 9
ENDMDL
MODEL 6
REMARK VINA RESULT:      -4.6      5.836     10.990
REMARK  Name = s2_esm2_control_ligand
REMARK  12 active torsions:
REMARK  status: ('A' for Active; 'I' for Inactive)
REMARK    1  A    between atoms: C_1  and  C_2
REMARK    2  A    between atoms: C_2  and  C_3
REMARK    3  A    between atoms: C_3  and  C_4
REMARK    4  A    between atoms: C_4  and  C_5
REMARK    5  A    between atoms: C_5  and  C_6
REMARK    6  A    between atoms: C_5  and  O_8
REMARK    7  A    between atoms: C_6  and  C_7
REMARK    8  A    between atoms: O_8  and  C_9
REMARK    9  A    between atoms: C_9  and  C_11
REMARK   10  A    between atoms: C_12  and  C_13
REMARK   11  A    between atoms: C_16  and  O_17
REMARK   12  A    between atoms: O_17  and  C_18
REMARK                            x       y       z     vdW  Elec       q    Type
REMARK                         _______ _______ _______ _____ _____    ______ ____
ROOT
ATOM      1  C   UNL     1      -6.365  -2.599  -0.362  0.00  0.00    +0.000 C 
ATOM      2  O   UNL     1      -7.491  -2.654  -0.778  0.00  0.00    +0.000 OA
ENDROOT
BRANCH   1   3
ATOM      3  C   UNL     1      -5.276  -3.500  -0.819  0.00  0.00    +0.000 C 
ATOM      4  C   UNL     1      -4.915  -3.468  -2.133  0.00  0.00    +0.000 C 
BRANCH   4   5
ATOM      5  C   UNL     1      -3.821  -4.282  -2.698  0.00  0.00    +0.000 A 
ATOM      6  C   UNL     1      -2.622  -3.655  -2.985  0.00  0.00    +0.000 A 
ATOM      7  C   UNL     1      -1.557  -4.371  -3.501  0.00  0.00    +0.000 A 
ATOM      8  C   UNL     1      -1.673  -5.716  -3.736  0.00  0.00    +0.000 A 
ATOM      9  C   UNL     1      -2.863  -6.345  -3.449  0.00  0.00    +0.000 A 
ATOM     10  C   UNL     1      -3.934  -5.626  -2.933  0.00  0.00    +0.000 A 
BRANCH   8  11
ATOM     11  O   UNL     1      -0.599  -6.370  -4.238  0.00  0.00    +0.000 OA
ATOM     12  C   UNL     1       0.708  -6.038  -3.788  0.00  0.00    +0.000 C 
ENDBRANCH   8  11
ENDBRANCH   4   5
ENDBRANCH   1   3
BRANCH   1  13
ATOM     13  O   UNL     1      -6.008  -1.676   0.555  0.00  0.00    +0.000 OA
BRANCH  13  14
ATOM     14  C   UNL     1      -4.676  -1.654   1.038  0.00  0.00    +0.000 C 
BRANCH  14  15
ATOM     15  C   UNL     1      -3.998  -0.382   0.534  0.00  0.00    +0.000 C 
ATOM     16  C   UNL     1      -4.912   0.542  -0.253  0.00  0.00    +0.000 C 
ENDBRANCH  14  15
BRANCH  14  17
ATOM     17  C   UNL     1      -4.682  -1.666   2.547  0.00  0.00    +0.000 C 
BRANCH  17  18
ATOM     18  C   UNL     1      -3.722  -0.699   3.168  0.00  0.00    +0.000 C 
BRANCH  18  20
ATOM     19  C   UNL     1      -4.350  -0.585   5.579  0.00  0.00    +0.000 C 
ATOM     20  C   UNL     1      -3.339  -1.100   4.561  0.00  0.00    +0.000 C 
ENDBRANCH  18  20
ENDBRANCH  17  18
ENDBRANCH  14  17
ENDBRANCH  13  14
ENDBRANCH   1  13
TORSDOF 9
ENDMDL
MODEL 7
REMARK VINA RESULT:      -4.6      5.954      9.995
REMARK  Name = s2_esm2_control_ligand
REMARK  12 active torsions:
REMARK  status: ('A' for Active; 'I' for Inactive)
REMARK    1  A    between atoms: C_1  and  C_2
REMARK    2  A    between atoms: C_2  and  C_3
REMARK    3  A    between atoms: C_3  and  C_4
REMARK    4  A    between atoms: C_4  and  C_5
REMARK    5  A    between atoms: C_5  and  C_6
REMARK    6  A    between atoms: C_5  and  O_8
REMARK    7  A    between atoms: C_6  and  C_7
REMARK    8  A    between atoms: O_8  and  C_9
REMARK    9  A    between atoms: C_9  and  C_11
REMARK   10  A    between atoms: C_12  and  C_13
REMARK   11  A    between atoms: C_16  and  O_17
REMARK   12  A    between atoms: O_17  and  C_18
REMARK                            x       y       z     vdW  Elec       q    Type
REMARK                         _______ _______ _______ _____ _____    ______ ____
ROOT
ATOM      1  C   UNL     1      -5.493  -3.825  -2.701  0.00  0.00    +0.000 C 
ATOM      2  O   UNL     1      -6.436  -4.563  -2.601  0.00  0.00    +0.000 OA
ENDROOT
BRANCH   1   3
ATOM      3  C   UNL     1      -4.979  -2.993  -1.583  0.00  0.00    +0.000 C 
ATOM      4  C   UNL     1      -5.525  -3.160  -0.346  0.00  0.00    +0.000 C 
BRANCH   4   5
ATOM      5  C   UNL     1      -5.071  -2.425   0.851  0.00  0.00    +0.000 A 
ATOM      6  C   UNL     1      -5.515  -2.856   2.089  0.00  0.00    +0.000 A 
ATOM      7  C   UNL     1      -5.110  -2.216   3.245  0.00  0.00    +0.000 A 
ATOM      8  C   UNL     1      -4.261  -1.142   3.185  0.00  0.00    +0.000 A 
ATOM      9  C   UNL     1      -3.814  -0.712   1.956  0.00  0.00    +0.000 A 
ATOM     10  C   UNL     1      -4.222  -1.353   0.793  0.00  0.00    +0.000 A 
BRANCH   8  11
ATOM     11  O   UNL     1      -3.892  -0.554   4.347  0.00  0.00    +0.000 OA
ATOM     12  C   UNL     1      -4.335  -1.092   5.586  0.00  0.00    +0.000 C 
ENDBRANCH   8  11
ENDBRANCH   4   5
ENDBRANCH   1   3
BRANCH   1  13
ATOM     13  O   UNL     1      -4.813  -3.722  -3.862  0.00  0.00    +0.000 OA
BRANCH  13  14
ATOM     14  C   UNL     1      -3.826  -4.688  -4.179  0.00  0.00    +0.000 C 
BRANCH  14  15
ATOM     15  C   UNL     1      -4.213  -5.363  -5.494  0.00  0.00    +0.000 C 
ATOM     16  C   UNL     1      -3.707  -6.787  -5.636  0.00  0.00    +0.000 C 
ENDBRANCH  14  15
BRANCH  14  17
ATOM     17  C   UNL     1      -2.484  -4.014  -4.326  0.00  0.00    +0.000 C 
BRANCH  17  18
ATOM     18  C   UNL     1      -1.575  -4.206  -3.151  0.00  0.00    +0.000 C 
BRANCH  18  20
ATOM     19  C   UNL     1       0.181  -5.824  -2.430  0.00  0.00    +0.000 C 
ATOM     20  C   UNL     1      -1.253  -5.652  -2.917  0.00  0.00    +0.000 C 
ENDBRANCH  18  20
ENDBRANCH  17  18
ENDBRANCH  14  17
ENDBRANCH  13  14
ENDBRANCH   1  13
TORSDOF 9
ENDMDL
MODEL 8
REMARK VINA RESULT:      -4.5      6.308     10.283
REMARK  Name = s2_esm2_control_ligand
REMARK  12 active torsions:
REMARK  status: ('A' for Active; 'I' for Inactive)
REMARK    1  A    between atoms: C_1  and  C_2
REMARK    2  A    between atoms: C_2  and  C_3
REMARK    3  A    between atoms: C_3  and  C_4
REMARK    4  A    between atoms: C_4  and  C_5
REMARK    5  A    between atoms: C_5  and  C_6
REMARK    6  A    between atoms: C_5  and  O_8
REMARK    7  A    between atoms: C_6  and  C_7
REMARK    8  A    between atoms: O_8  and  C_9
REMARK    9  A    between atoms: C_9  and  C_11
REMARK   10  A    between atoms: C_12  and  C_13
REMARK   11  A    between atoms: C_16  and  O_17
REMARK   12  A    between atoms: O_17  and  C_18
REMARK                            x       y       z     vdW  Elec       q    Type
REMARK                         _______ _______ _______ _____ _____    ______ ____
ROOT
ATOM      1  C   UNL     1      -5.382  -4.157  -2.849  0.00  0.00    +0.000 C 
ATOM      2  O   UNL     1      -6.246  -3.743  -3.576  0.00  0.00    +0.000 OA
ENDROOT
BRANCH   1   3
ATOM      3  C   UNL     1      -5.337  -3.884  -1.390  0.00  0.00    +0.000 C 
ATOM      4  C   UNL     1      -4.845  -2.685  -0.969  0.00  0.00    +0.000 C 
BRANCH   4   5
ATOM      5  C   UNL     1      -4.789  -2.280   0.450  0.00  0.00    +0.000 A 
ATOM      6  C   UNL     1      -4.033  -1.170   0.782  0.00  0.00    +0.000 A 
ATOM      7  C   UNL     1      -3.956  -0.735   2.091  0.00  0.00    +0.000 A 
ATOM      8  C   UNL     1      -4.630  -1.397   3.084  0.00  0.00    +0.000 A 
ATOM      9  C   UNL     1      -5.387  -2.500   2.758  0.00  0.00    +0.000 A 
ATOM     10  C   UNL     1      -5.462  -2.939   1.442  0.00  0.00    +0.000 A 
BRANCH   8  11
ATOM     11  O   UNL     1      -4.525  -0.927   4.350  0.00  0.00    +0.000 OA
ATOM     12  C   UNL     1      -3.591   0.103   4.648  0.00  0.00    +0.000 C 
ENDBRANCH   8  11
ENDBRANCH   4   5
ENDBRANCH   1   3
BRANCH   1  13
ATOM     13  O   UNL     1      -4.387  -4.933  -3.326  0.00  0.00    +0.000 OA
BRANCH  13  14
ATOM     14  C   UNL     1      -3.826  -4.644  -4.595  0.00  0.00    +0.000 C 
BRANCH  14  15
ATOM     15  C   UNL     1      -2.575  -3.794  -4.390  0.00  0.00    +0.000 C 
ATOM     16  C   UNL     1      -1.781  -4.143  -3.143  0.00  0.00    +0.000 C 
ENDBRANCH  14  15
BRANCH  14  17
ATOM     17  C   UNL     1      -3.462  -5.931  -5.295  0.00  0.00    +0.000 C 
BRANCH  17  18
ATOM     18  C   UNL     1      -3.742  -7.162  -4.489  0.00  0.00    +0.000 C 
BRANCH  18  20
ATOM     19  C   UNL     1      -1.289  -7.502  -4.788  0.00  0.00    +0.000 C 
ATOM     20  C   UNL     1      -2.645  -8.177  -4.609  0.00  0.00    +0.000 C 
ENDBRANCH  18  20
ENDBRANCH  17  18
ENDBRANCH  14  17
ENDBRANCH  13  14
ENDBRANCH   1  13
TORSDOF 9
ENDMDL
MODEL 9
REMARK VINA RESULT:      -4.5      5.279      9.252
REMARK  Name = s2_esm2_control_ligand
REMARK  12 active torsions:
REMARK  status: ('A' for Active; 'I' for Inactive)
REMARK    1  A    between atoms: C_1  and  C_2
REMARK    2  A    between atoms: C_2  and  C_3
REMARK    3  A    between atoms: C_3  and  C_4
REMARK    4  A    between atoms: C_4  and  C_5
REMARK    5  A    between atoms: C_5  and  C_6
REMARK    6  A    between atoms: C_5  and  O_8
REMARK    7  A    between atoms: C_6  and  C_7
REMARK    8  A    between atoms: O_8  and  C_9
REMARK    9  A    between atoms: C_9  and  C_11
REMARK   10  A    between atoms: C_12  and  C_13
REMARK   11  A    between atoms: C_16  and  O_17
REMARK   12  A    between atoms: O_17  and  C_18
REMARK                            x       y       z     vdW  Elec       q    Type
REMARK                         _______ _______ _______ _____ _____    ______ ____
ROOT
ATOM      1  C   UNL     1      -6.463  -3.461  -1.529  0.00  0.00    +0.000 C 
ATOM      2  O   UNL     1      -7.389  -4.107  -1.941  0.00  0.00    +0.000 OA
ENDROOT
BRANCH   1   3
ATOM      3  C   UNL     1      -6.279  -3.113  -0.096  0.00  0.00    +0.000 C 
ATOM      4  C   UNL     1      -5.108  -2.529   0.285  0.00  0.00    +0.000 C 
BRANCH   4   5
ATOM      5  C   UNL     1      -4.824  -2.099   1.668  0.00  0.00    +0.000 A 
ATOM      6  C   UNL     1      -3.975  -1.023   1.855  0.00  0.00    +0.000 A 
ATOM      7  C   UNL     1      -3.685  -0.565   3.127  0.00  0.00    +0.000 A 
ATOM      8  C   UNL     1      -4.235  -1.172   4.226  0.00  0.00    +0.000 A 
ATOM      9  C   UNL     1      -5.083  -2.242   4.045  0.00  0.00    +0.000 A 
ATOM     10  C   UNL     1      -5.373  -2.703   2.766  0.00  0.00    +0.000 A 
BRANCH   8  11
ATOM     11  O   UNL     1      -3.923  -0.683   5.449  0.00  0.00    +0.000 OA
ATOM     12  C   UNL     1      -4.926  -0.584   6.451  0.00  0.00    +0.000 C 
ENDBRANCH   8  11
ENDBRANCH   4   5
ENDBRANCH   1   3
BRANCH   1  13
ATOM     13  O   UNL     1      -5.499  -3.019  -2.362  0.00  0.00    +0.000 OA
BRANCH  13  14
ATOM     14  C   UNL     1      -4.617  -3.951  -2.963  0.00  0.00    +0.000 C 
BRANCH  14  15
ATOM     15  C   UNL     1      -4.797  -3.883  -4.478  0.00  0.00    +0.000 C 
ATOM     16  C   UNL     1      -5.695  -4.966  -5.048  0.00  0.00    +0.000 C 
ENDBRANCH  14  15
BRANCH  14  17
ATOM     17  C   UNL     1      -3.192  -3.608  -2.601  0.00  0.00    +0.000 C 
BRANCH  17  18
ATOM     18  C   UNL     1      -2.207  -3.862  -3.700  0.00  0.00    +0.000 C 
BRANCH  18  20
ATOM     19  C   UNL     1      -1.666  -6.278  -4.002  0.00  0.00    +0.000 C 
ATOM     20  C   UNL     1      -1.248  -4.962  -3.355  0.00  0.00    +0.000 C 
ENDBRANCH  18  20
ENDBRANCH  17  18
ENDBRANCH  14  17
ENDBRANCH  13  14
ENDBRANCH   1  13
TORSDOF 9
ENDMDL
