REMARK  Name = ox2_shuffle_esm0_ligand
REMARK  5 active torsions:
REMARK  status: ('A' for Active; 'I' for Inactive)
REMARK    1  A    between atoms: C_1  and  O_2
REMARK    2  A    between atoms: O_2  and  C_3
REMARK    3  A    between atoms: C_6  and  C_7
REMARK    4  A    between atoms: C_7  and  C_9
REMARK    5  A    between atoms: C_15  and  O_16
REMARK                            x       y       z     vdW  Elec       q    Type
REMARK                         _______ _______ _______ _____ _____    ______ ____
ROOT
ATOM      1  C   UNL     1       4.172  -0.853   0.401  0.00  0.00    +0.000 A 
ATOM      2  C   UNL     1       4.613   0.146   1.259  0.00  0.00    +0.000 A 
ATOM      3  C   UNL     1       4.442   1.464   0.915  0.00  0.00    +0.000 A 
ATOM      4  C   UNL     1       3.833   1.813  -0.268  0.00  0.00    +0.000 A 
ATOM      5  C   UNL     1       3.411   0.813  -1.134  0.00  0.00    +0.000 A 
ATOM      6  C   UNL     1       3.575  -0.515  -0.788  0.00  0.00    +0.000 A 
ENDROOT
BRANCH   1   8
ATOM      7  C   UNL     1       5.246  -2.617   1.668  0.00  0.00    +0.000 C 
ATOM      8  O   UNL     1       4.295  -2.167   0.699  0.00  0.00    +0.000 OA
ENDBRANCH   1   8
BRANCH   4   9
ATOM      9  C   UNL     1       3.608   3.226  -0.675  0.00  0.00    +0.000 C 
ATOM     10  O   UNL     1       3.548   3.454  -1.856  0.00  0.00    +0.000 OA
BRANCH   9  11
ATOM     11  C   UNL     1       3.389   4.355   0.251  0.00  0.00    +0.000 A 
ATOM     12  C   UNL     1       3.064   5.604  -0.278  0.00  0.00    +0.000 A 
ATOM     13  C   UNL     1       2.829   6.678   0.550  0.00  0.00    +0.000 A 
ATOM     14  C   UNL     1       2.915   6.538   1.921  0.00  0.00    +0.000 A 
ATOM     15  C   UNL     1       3.224   5.302   2.453  0.00  0.00    +0.000 A 
ATOM     16  C   UNL     1       3.449   4.223   1.617  0.00  0.00    +0.000 A 
ENDBRANCH   9  11
ENDBRANCH   4   9
BRANCH   5  17
ATOM     17  O   UNL     1       2.835   1.169  -2.314  0.00  0.00    +0.000 OA
ATOM     18  H   UNL     1       2.528   0.471  -2.945  0.00  0.00    +0.000 HD
ENDBRANCH   5  17
TORSDOF 4
