MODEL 1
REMARK VINA RESULT:      -5.3      0.000      0.000
REMARK  Name = ox2_shuffle_esm0_ligand
REMARK  5 active torsions:
REMARK  status: ('A' for Active; 'I' for Inactive)
REMARK    1  A    between atoms: C_1  and  O_2
REMARK    2  A    between atoms: O_2  and  C_3
REMARK    3  A    between atoms: C_6  and  C_7
REMARK    4  A    between atoms: C_7  and  C_9
REMARK    5  A    between atoms: C_15  and  O_16
REMARK                            x       y       z     vdW  Elec       q    Type
REMARK                         _______ _______ _______ _____ _____    ______ ____
ROOT
ATOM      1  C   UNL     1      -3.272   2.980  -4.799  0.00  0.00    +0.000 A 
ATOM      2  C   UNL     1      -2.378   3.550  -3.901  0.00  0.00    +0.000 A 
ATOM      3  C   UNL     1      -2.531   3.331  -2.555  0.00  0.00    +0.000 A 
ATOM      4  C   UNL     1      -3.557   2.547  -2.078  0.00  0.00    +0.000 A 
ATOM      5  C   UNL     1      -4.461   1.995  -2.975  0.00  0.00    +0.000 A 
ATOM      6  C   UNL     1      -4.306   2.207  -4.332  0.00  0.00    +0.000 A 
ENDROOT
BRANCH   1   8
ATOM      7  C   UNL     1      -2.806   2.048  -6.986  0.00  0.00    +0.000 C 
ATOM      8  O   UNL     1      -3.156   3.145  -6.137  0.00  0.00    +0.000 OA
ENDBRANCH   1   8
BRANCH   4   9
ATOM      9  C   UNL     1      -3.752   2.265  -0.631  0.00  0.00    +0.000 C 
ATOM     10  O   UNL     1      -4.585   2.915  -0.053  0.00  0.00    +0.000 OA
BRANCH   9  11
ATOM     11  C   UNL     1      -3.055   1.212   0.134  0.00  0.00    +0.000 A 
ATOM     12  C   UNL     1      -3.649   0.720   1.296  0.00  0.00    +0.000 A 
ATOM     13  C   UNL     1      -3.045  -0.277   2.027  0.00  0.00    +0.000 A 
ATOM     14  C   UNL     1      -1.835  -0.806   1.623  0.00  0.00    +0.000 A 
ATOM     15  C   UNL     1      -1.245  -0.333   0.468  0.00  0.00    +0.000 A 
ATOM     16  C   UNL     1      -1.862   0.662  -0.269  0.00  0.00    +0.000 A 
ENDBRANCH   9  11
ENDBRANCH   4   9
BRANCH   5  17
ATOM     17  O   UNL     1      -5.488   1.244  -2.491  0.00  0.00    +0.000 OA
ATOM     18  H   UNL     1      -5.433   0.257  -2.517  0.00  0.00    +0.000 HD
ENDBRANCH   5  17
TORSDOF 4
ENDMDL
MODEL 2
REMARK VINA RESULT:      -5.3      3.476      5.535
REMARK  Name = ox2_shuffle_esm0_ligand
REMARK  5 active torsions:
REMARK  status: ('A' for Active; 'I' for Inactive)
REMARK    1  A    between atoms: C_1  and  O_2
REMARK    2  A    between atoms: O_2  and  C_3
REMARK    3  A    between atoms: C_6  and  C_7
REMARK    4  A    between atoms: C_7  and  C_9
REMARK    5  A    between atoms: C_15  and  O_16
REMARK                            x       y       z     vdW  Elec       q    Type
REMARK                         _______ _______ _______ _____ _____    ______ ____
ROOT
ATOM      1  C   UNL     1       1.909   0.782  -3.852  0.00  0.00    +0.000 A 
ATOM      2  C   UNL     1       1.494   1.200  -2.594  0.00  0.00    +0.000 A 
ATOM      3  C   UNL     1       0.464   2.100  -2.481  0.00  0.00    +0.000 A 
ATOM      4  C   UNL     1      -0.170   2.594  -3.598  0.00  0.00    +0.000 A 
ATOM      5  C   UNL     1       0.260   2.191  -4.855  0.00  0.00    +0.000 A 
ATOM      6  C   UNL     1       1.292   1.279  -4.973  0.00  0.00    +0.000 A 
ENDROOT
BRANCH   1   8
ATOM      7  C   UNL     1       3.904  -0.311  -3.018  0.00  0.00    +0.000 C 
ATOM      8  O   UNL     1       2.904  -0.119  -4.022  0.00  0.00    +0.000 OA
ENDBRANCH   1   8
BRANCH   4   9
ATOM      9  C   UNL     1      -1.302   3.556  -3.525  0.00  0.00    +0.000 C 
ATOM     10  O   UNL     1      -1.057   4.711  -3.766  0.00  0.00    +0.000 OA
BRANCH   9  11
ATOM     11  C   UNL     1      -2.707   3.199  -3.246  0.00  0.00    +0.000 A 
ATOM     12  C   UNL     1      -3.508   2.753  -4.297  0.00  0.00    +0.000 A 
ATOM     13  C   UNL     1      -4.817   2.388  -4.077  0.00  0.00    +0.000 A 
ATOM     14  C   UNL     1      -5.361   2.461  -2.810  0.00  0.00    +0.000 A 
ATOM     15  C   UNL     1      -4.571   2.889  -1.762  0.00  0.00    +0.000 A 
ATOM     16  C   UNL     1      -3.253   3.245  -1.986  0.00  0.00    +0.000 A 
ENDBRANCH   9  11
ENDBRANCH   4   9
BRANCH   5  17
ATOM     17  O   UNL     1      -0.355   2.707  -5.953  0.00  0.00    +0.000 OA
ATOM     18  H   UNL     1      -0.927   2.128  -6.517  0.00  0.00    +0.000 HD
ENDBRANCH   5  17
TORSDOF 4
ENDMDL
MODEL 3
REMARK VINA RESULT:      -5.3      1.583      2.614
REMARK  Name = ox2_shuffle_esm0_ligand
REMARK  5 active torsions:
REMARK  status: ('A' for Active; 'I' for Inactive)
REMARK    1  A    between atoms: C_1  and  O_2
REMARK    2  A    between atoms: O_2  and  C_3
REMARK    3  A    between atoms: C_6  and  C_7
REMARK    4  A    between atoms: C_7  and  C_9
REMARK    5  A    between atoms: C_15  and  O_16
REMARK                            x       y       z     vdW  Elec       q    Type
REMARK                         _______ _______ _______ _____ _____    ______ ____
ROOT
ATOM      1  C   UNL     1      -2.344   1.952  -6.213  0.00  0.00    +0.000 A 
ATOM      2  C   UNL     1      -3.303   1.212  -5.534  0.00  0.00    +0.000 A 
ATOM      3  C   UNL     1      -3.465   1.385  -4.182  0.00  0.00    +0.000 A 
ATOM      4  C   UNL     1      -2.695   2.289  -3.487  0.00  0.00    +0.000 A 
ATOM      5  C   UNL     1      -1.723   3.013  -4.164  0.00  0.00    +0.000 A 
ATOM      6  C   UNL     1      -1.562   2.847  -5.526  0.00  0.00    +0.000 A 
ENDROOT
BRANCH   1   8
ATOM      7  C   UNL     1      -1.763   0.593  -8.133  0.00  0.00    +0.000 C 
ATOM      8  O   UNL     1      -2.156   1.838  -7.548  0.00  0.00    +0.000 OA
ENDBRANCH   1   8
BRANCH   4   9
ATOM      9  C   UNL     1      -2.847   2.525  -2.026  0.00  0.00    +0.000 C 
ATOM     10  O   UNL     1      -3.310   3.584  -1.687  0.00  0.00    +0.000 OA
BRANCH   9  11
ATOM     11  C   UNL     1      -2.537   1.545  -0.967  0.00  0.00    +0.000 A 
ATOM     12  C   UNL     1      -1.363   0.798  -1.065  0.00  0.00    +0.000 A 
ATOM     13  C   UNL     1      -1.024  -0.110  -0.089  0.00  0.00    +0.000 A 
ATOM     14  C   UNL     1      -1.844  -0.302   1.005  0.00  0.00    +0.000 A 
ATOM     15  C   UNL     1      -3.002   0.442   1.117  0.00  0.00    +0.000 A 
ATOM     16  C   UNL     1      -3.333   1.362   0.138  0.00  0.00    +0.000 A 
ENDBRANCH   9  11
ENDBRANCH   4   9
BRANCH   5  17
ATOM     17  O   UNL     1      -0.948   3.884  -3.463  0.00  0.00    +0.000 OA
ATOM     18  H   UNL     1      -0.953   4.846  -3.692  0.00  0.00    +0.000 HD
ENDBRANCH   5  17
TORSDOF 4
ENDMDL
MODEL 4
REMARK VINA RESULT:      -5.1      3.551      5.266
REMARK  Name = ox2_shuffle_esm0_ligand
REMARK  5 active torsions:
REMARK  status: ('A' for Active; 'I' for Inactive)
REMARK    1  A    between atoms: C_1  and  O_2
REMARK    2  A    between atoms: O_2  and  C_3
REMARK    3  A    between atoms: C_6  and  C_7
REMARK    4  A    between atoms: C_7  and  C_9
REMARK    5  A    between atoms: C_15  and  O_16
REMARK                            x       y       z     vdW  Elec       q    Type
REMARK                         _______ _______ _______ _____ _____    ______ ____
ROOT
ATOM      1  C   UNL     1      -4.040   2.148  -4.856  0.00  0.00    +0.000 A 
ATOM      2  C   UNL     1      -3.442   1.051  -5.463  0.00  0.00    +0.000 A 
ATOM      3  C   UNL     1      -2.077   1.011  -5.603  0.00  0.00    +0.000 A 
ATOM      4  C   UNL     1      -1.288   2.040  -5.144  0.00  0.00    +0.000 A 
ATOM      5  C   UNL     1      -1.890   3.145  -4.556  0.00  0.00    +0.000 A 
ATOM      6  C   UNL     1      -3.263   3.186  -4.407  0.00  0.00    +0.000 A 
ENDROOT
BRANCH   1   8
ATOM      7  C   UNL     1      -5.933   2.415  -3.367  0.00  0.00    +0.000 C 
ATOM      8  O   UNL     1      -5.378   2.230  -4.672  0.00  0.00    +0.000 OA
ENDBRANCH   1   8
BRANCH   4   9
ATOM      9  C   UNL     1       0.195   2.033  -5.256  0.00  0.00    +0.000 C 
ATOM     10  O   UNL     1       0.676   2.572  -6.220  0.00  0.00    +0.000 OA
BRANCH   9  11
ATOM     11  C   UNL     1       1.123   1.477  -4.250  0.00  0.00    +0.000 A 
ATOM     12  C   UNL     1       2.495   1.565  -4.481  0.00  0.00    +0.000 A 
ATOM     13  C   UNL     1       3.395   1.080  -3.560  0.00  0.00    +0.000 A 
ATOM     14  C   UNL     1       2.954   0.494  -2.390  0.00  0.00    +0.000 A 
ATOM     15  C   UNL     1       1.597   0.414  -2.148  0.00  0.00    +0.000 A 
ATOM     16  C   UNL     1       0.696   0.912  -3.073  0.00  0.00    +0.000 A 
ENDBRANCH   9  11
ENDBRANCH   4   9
BRANCH   5  17
ATOM     17  O   UNL     1      -1.102   4.170  -4.132  0.00  0.00    +0.000 OA
ATOM     18  H   UNL     1      -0.792   4.199  -3.192  0.00  0.00    +0.000 HD
ENDBRANCH   5  17
TORSDOF 4
ENDMDL
MODEL 5
REMARK VINA RESULT:      -5.0      2.177      3.725
REMARK  Name = ox2_shuffle_esm0_ligand
REMARK  5 active torsions:
REMARK  status: ('A' for Active; 'I' for Inactive)
REMARK    1  A    between atoms: C_1  and  O_2
REMARK    2  A    between atoms: O_2  and  C_3
REMARK    3  A    between atoms: C_6  and  C_7
REMARK    4  A    between atoms: C_7  and  C_9
REMARK    5  A    between atoms: C_15  and  O_16
REMARK                            x       y       z     vdW  Elec       q    Type
REMARK                         _______ _______ _______ _____ _____    ______ ____
ROOT
ATOM      1  C   UNL     1      -1.486   0.959  -7.494  0.00  0.00    +0.000 A 
ATOM      2  C   UNL     1      -0.380   0.820  -6.666  0.00  0.00    +0.000 A 
ATOM      3  C   UNL     1      -0.348   1.472  -5.458  0.00  0.00    +0.000 A 
ATOM      4  C   UNL     1      -1.399   2.259  -5.051  0.00  0.00    +0.000 A 
ATOM      5  C   UNL     1      -2.495   2.413  -5.889  0.00  0.00    +0.000 A 
ATOM      6  C   UNL     1      -2.535   1.753  -7.103  0.00  0.00    +0.000 A 
ENDROOT
BRANCH   1   8
ATOM      7  C   UNL     1      -1.017  -0.979  -8.872  0.00  0.00    +0.000 C 
ATOM      8  O   UNL     1      -1.581   0.322  -8.684  0.00  0.00    +0.000 OA
ENDBRANCH   1   8
BRANCH   4   9
ATOM      9  C   UNL     1      -1.418   2.970  -3.744  0.00  0.00    +0.000 C 
ATOM     10  O   UNL     1      -1.041   4.113  -3.735  0.00  0.00    +0.000 OA
BRANCH   9  11
ATOM     11  C   UNL     1      -1.922   2.407  -2.475  0.00  0.00    +0.000 A 
ATOM     12  C   UNL     1      -3.105   2.914  -1.938  0.00  0.00    +0.000 A 
ATOM     13  C   UNL     1      -3.622   2.402  -0.770  0.00  0.00    +0.000 A 
ATOM     14  C   UNL     1      -2.975   1.379  -0.106  0.00  0.00    +0.000 A 
ATOM     15  C   UNL     1      -1.810   0.863  -0.638  0.00  0.00    +0.000 A 
ATOM     16  C   UNL     1      -1.300   1.373  -1.818  0.00  0.00    +0.000 A 
ENDBRANCH   9  11
ENDBRANCH   4   9
BRANCH   5  17
ATOM     17  O   UNL     1      -3.518   3.217  -5.489  0.00  0.00    +0.000 OA
ATOM     18  H   UNL     1      -3.348   4.171  -5.290  0.00  0.00    +0.000 HD
ENDBRANCH   5  17
TORSDOF 4
ENDMDL
MODEL 6
REMARK VINA RESULT:      -5.0     11.586     13.025
REMARK  Name = ox2_shuffle_esm0_ligand
REMARK  5 active torsions:
REMARK  status: ('A' for Active; 'I' for Inactive)
REMARK    1  A    between atoms: C_1  and  O_2
REMARK    2  A    between atoms: O_2  and  C_3
REMARK    3  A    between atoms: C_6  and  C_7
REMARK    4  A    between atoms: C_7  and  C_9
REMARK    5  A    between atoms: C_15  and  O_16
REMARK                            x       y       z     vdW  Elec       q    Type
REMARK                         _______ _______ _______ _____ _____    ______ ____
ROOT
ATOM      1  C   UNL     1       6.632  10.070   3.562  0.00  0.00    +0.000 A 
ATOM      2  C   UNL     1       5.857  10.460   4.647  0.00  0.00    +0.000 A 
ATOM      3  C   UNL     1       4.594  10.955   4.438  0.00  0.00    +0.000 A 
ATOM      4  C   UNL     1       4.079  11.067   3.168  0.00  0.00    +0.000 A 
ATOM      5  C   UNL     1       4.863  10.696   2.083  0.00  0.00    +0.000 A 
ATOM      6  C   UNL     1       6.132  10.190   2.290  0.00  0.00    +0.000 A 
ENDROOT
BRANCH   1   8
ATOM      7  C   UNL     1       8.519   9.541   4.988  0.00  0.00    +0.000 C 
ATOM      8  O   UNL     1       7.875   9.555   3.711  0.00  0.00    +0.000 OA
ENDBRANCH   1   8
BRANCH   4   9
ATOM      9  C   UNL     1       2.709  11.579   2.893  0.00  0.00    +0.000 C 
ATOM     10  O   UNL     1       2.615  12.721   2.521  0.00  0.00    +0.000 OA
BRANCH   9  11
ATOM     11  C   UNL     1       1.469  10.783   2.977  0.00  0.00    +0.000 A 
ATOM     12  C   UNL     1       0.891  10.571   4.229  0.00  0.00    +0.000 A 
ATOM     13  C   UNL     1      -0.278   9.854   4.351  0.00  0.00    +0.000 A 
ATOM     14  C   UNL     1      -0.897   9.328   3.234  0.00  0.00    +0.000 A 
ATOM     15  C   UNL     1      -0.338   9.544   1.990  0.00  0.00    +0.000 A 
ATOM     16  C   UNL     1       0.831  10.274   1.872  0.00  0.00    +0.000 A 
ENDBRANCH   9  11
ENDBRANCH   4   9
BRANCH   5  17
ATOM     17  O   UNL     1       4.354  10.836   0.829  0.00  0.00    +0.000 OA
ATOM     18  H   UNL     1       4.222  11.740   0.447  0.00  0.00    +0.000 HD
ENDBRANCH   5  17
TORSDOF 4
ENDMDL
MODEL 7
REMARK VINA RESULT:      -5.0      2.447      3.835
REMARK  Name = ox2_shuffle_esm0_ligand
REMARK  5 active torsions:
REMARK  status: ('A' for Active; 'I' for Inactive)
REMARK    1  A    between atoms: C_1  and  O_2
REMARK    2  A    between atoms: O_2  and  C_3
REMARK    3  A    between atoms: C_6  and  C_7
REMARK    4  A    between atoms: C_7  and  C_9
REMARK    5  A    between atoms: C_15  and  O_16
REMARK                            x       y       z     vdW  Elec       q    Type
REMARK                         _______ _______ _______ _____ _____    ______ ____
ROOT
ATOM      1  C   UNL     1      -1.776   1.468  -7.262  0.00  0.00    +0.000 A 
ATOM      2  C   UNL     1      -2.887   2.170  -6.813  0.00  0.00    +0.000 A 
ATOM      3  C   UNL     1      -2.877   2.731  -5.560  0.00  0.00    +0.000 A 
ATOM      4  C   UNL     1      -1.778   2.614  -4.741  0.00  0.00    +0.000 A 
ATOM      5  C   UNL     1      -0.676   1.895  -5.185  0.00  0.00    +0.000 A 
ATOM      6  C   UNL     1      -0.679   1.334  -6.448  0.00  0.00    +0.000 A 
ENDROOT
BRANCH   1   8
ATOM      7  C   UNL     1      -0.663   0.024  -8.858  0.00  0.00    +0.000 C 
ATOM      8  O   UNL     1      -1.723   0.913  -8.495  0.00  0.00    +0.000 OA
ENDBRANCH   1   8
BRANCH   4   9
ATOM      9  C   UNL     1      -1.713   3.221  -3.385  0.00  0.00    +0.000 C 
ATOM     10  O   UNL     1      -1.076   4.237  -3.268  0.00  0.00    +0.000 OA
BRANCH   9  11
ATOM     11  C   UNL     1      -2.417   2.715  -2.190  0.00  0.00    +0.000 A 
ATOM     12  C   UNL     1      -1.892   1.611  -1.519  0.00  0.00    +0.000 A 
ATOM     13  C   UNL     1      -2.503   1.120  -0.388  0.00  0.00    +0.000 A 
ATOM     14  C   UNL     1      -3.652   1.712   0.101  0.00  0.00    +0.000 A 
ATOM     15  C   UNL     1      -4.171   2.813  -0.550  0.00  0.00    +0.000 A 
ATOM     16  C   UNL     1      -3.546   3.309  -1.681  0.00  0.00    +0.000 A 
ENDBRANCH   9  11
ENDBRANCH   4   9
BRANCH   5  17
ATOM     17  O   UNL     1       0.395   1.762  -4.356  0.00  0.00    +0.000 OA
ATOM     18  H   UNL     1       1.202   2.318  -4.498  0.00  0.00    +0.000 HD
ENDBRANCH   5  17
TORSDOF 4
ENDMDL
MODEL 8
REMARK VINA RESULT:      -4.8     10.260     11.609
REMARK  Name = ox2_shuffle_esm0_ligand
REMARK  5 active torsions:
REMARK  status: ('A' for Active; 'I' for Inactive)
REMARK    1  A    between atoms: C_1  and  O_2
REMARK    2  A    between atoms: O_2  and  C_3
REMARK    3  A    between atoms: C_6  and  C_7
REMARK    4  A    between atoms: C_7  and  C_9
REMARK    5  A    between atoms: C_15  and  O_16
REMARK                            x       y       z     vdW  Elec       q    Type
REMARK                         _______ _______ _______ _____ _____    ______ ____
ROOT
ATOM      1  C   UNL     1       4.352  11.156   3.093  0.00  0.00    +0.000 A 
ATOM      2  C   UNL     1       3.677  11.265   4.302  0.00  0.00    +0.000 A 
ATOM      3  C   UNL     1       2.305  11.259   4.318  0.00  0.00    +0.000 A 
ATOM      4  C   UNL     1       1.584  11.140   3.153  0.00  0.00    +0.000 A 
ATOM      5  C   UNL     1       2.260  11.052   1.944  0.00  0.00    +0.000 A 
ATOM      6  C   UNL     1       3.642  11.050   1.923  0.00  0.00    +0.000 A 
ENDROOT
BRANCH   1   8
ATOM      7  C   UNL     1       6.397   9.984   2.529  0.00  0.00    +0.000 C 
ATOM      8  O   UNL     1       5.703  11.135   3.020  0.00  0.00    +0.000 OA
ENDBRANCH   1   8
BRANCH   4   9
ATOM      9  C   UNL     1       0.097  11.109   3.122  0.00  0.00    +0.000 C 
ATOM     10  O   UNL     1      -0.468  12.136   2.847  0.00  0.00    +0.000 OA
BRANCH   9  11
ATOM     11  C   UNL     1      -0.735   9.909   3.339  0.00  0.00    +0.000 A 
ATOM     12  C   UNL     1      -1.024   9.086   2.249  0.00  0.00    +0.000 A 
ATOM     13  C   UNL     1      -1.776   7.945   2.411  0.00  0.00    +0.000 A 
ATOM     14  C   UNL     1      -2.263   7.597   3.655  0.00  0.00    +0.000 A 
ATOM     15  C   UNL     1      -1.971   8.398   4.740  0.00  0.00    +0.000 A 
ATOM     16  C   UNL     1      -1.206   9.539   4.575  0.00  0.00    +0.000 A 
ENDBRANCH   9  11
ENDBRANCH   4   9
BRANCH   5  17
ATOM     17  O   UNL     1       1.537  10.962   0.794  0.00  0.00    +0.000 OA
ATOM     18  H   UNL     1       1.387  11.769   0.240  0.00  0.00    +0.000 HD
ENDBRANCH   5  17
TORSDOF 4
ENDMDL
MODEL 9
REMARK VINA RESULT:      -4.8      4.716      6.285
REMARK  Name = ox2_shuffle_esm0_ligand
REMARK  5 active torsions:
REMARK  status: ('A' for Active; 'I' for Inactive)
REMARK    1  A    between atoms: C_1  and  O_2
REMARK    2  A    between atoms: O_2  and  C_3
REMARK    3  A    between atoms: C_6  and  C_7
REMARK    4  A    between atoms: C_7  and  C_9
REMARK    5  A    between atoms: C_15  and  O_16
REMARK                            x       y       z     vdW  Elec       q    Type
REMARK                         _______ _______ _______ _____ _____    ______ ____
ROOT
ATOM      1  C   UNL     1       3.292  -1.915  -2.599  0.00  0.00    +0.000 A 
ATOM      2  C   UNL     1       2.020  -2.472  -2.644  0.00  0.00    +0.000 A 
ATOM      3  C   UNL     1       0.918  -1.668  -2.486  0.00  0.00    +0.000 A 
ATOM      4  C   UNL     1       1.054  -0.313  -2.289  0.00  0.00    +0.000 A 
ATOM      5  C   UNL     1       2.327   0.239  -2.224  0.00  0.00    +0.000 A 
ATOM      6  C   UNL     1       3.438  -0.566  -2.390  0.00  0.00    +0.000 A 
ENDROOT
BRANCH   1   8
ATOM      7  C   UNL     1       5.613  -2.351  -2.058  0.00  0.00    +0.000 C 
ATOM      8  O   UNL     1       4.410  -2.656  -2.770  0.00  0.00    +0.000 OA
ENDBRANCH   1   8
BRANCH   4   9
ATOM      9  C   UNL     1      -0.109   0.601  -2.132  0.00  0.00    +0.000 C 
ATOM     10  O   UNL     1      -0.300   1.402  -3.011  0.00  0.00    +0.000 OA
BRANCH   9  11
ATOM     11  C   UNL     1      -1.080   0.561  -1.020  0.00  0.00    +0.000 A 
ATOM     12  C   UNL     1      -2.202   1.388  -1.079  0.00  0.00    +0.000 A 
ATOM     13  C   UNL     1      -3.144   1.366  -0.076  0.00  0.00    +0.000 A 
ATOM     14  C   UNL     1      -2.993   0.526   1.009  0.00  0.00    +0.000 A 
ATOM     15  C   UNL     1      -1.891  -0.304   1.069  0.00  0.00    +0.000 A 
ATOM     16  C   UNL     1      -0.952  -0.286   0.053  0.00  0.00    +0.000 A 
ENDBRANCH   9  11
ENDBRANCH   4   9
BRANCH   5  17
ATOM     17  O   UNL     1       2.450   1.575  -2.001  0.00  0.00    +0.000 OA
ATOM     18  H   UNL     1       2.122   1.968  -1.154  0.00  0.00    +0.000 HD
ENDBRANCH   5  17
TORSDOF 4
ENDMDL
