REMARK  Name = orig_f12_ligand
REMARK  12 active torsions:
REMARK  status: ('A' for Active; 'I' for Inactive)
REMARK    1  A    between atoms: C_1  and  C_2
REMARK    2  A    between atoms: C_2  and  C_3
REMARK    3  A    between atoms: C_3  and  C_4
REMARK    4  A    between atoms: C_4  and  C_5
REMARK    5  A    between atoms: C_5  and  C_6
REMARK    6  A    between atoms: C_5  and  O_8
REMARK    7  A    between atoms: C_6  and  C_7
REMARK    8  A    between atoms: O_8  and  C_9
REMARK    9  A    between atoms: C_9  and  C_11
REMARK   10  A    between atoms: C_12  and  C_13
REMARK   11  A    between atoms: C_16  and  O_17
REMARK   12  A    between atoms: O_17  and  C_18
REMARK                            x       y       z     vdW  Elec       q    Type
REMARK                         _______ _______ _______ _____ _____    ______ ____
ROOT
ATOM      1  C   UNL     1       8.486  -1.869   4.733  0.00  0.00    +0.000 C 
ATOM      2  O   UNL     1       9.560  -1.863   4.171  0.00  0.00    +0.000 OA
ENDROOT
BRANCH   1   3
ATOM      3  C   UNL     1       7.945  -3.013   5.479  0.00  0.00    +0.000 C 
ATOM      4  C   UNL     1       8.434  -4.236   5.247  0.00  0.00    +0.000 C 
BRANCH   4   5
ATOM      5  C   UNL     1       7.865  -5.446   5.865  0.00  0.00    +0.000 A 
ATOM      6  C   UNL     1       6.909  -5.382   6.853  0.00  0.00    +0.000 A 
ATOM      7  C   UNL     1       6.368  -6.541   7.386  0.00  0.00    +0.000 A 
ATOM      8  C   UNL     1       6.791  -7.763   6.937  0.00  0.00    +0.000 A 
ATOM      9  C   UNL     1       7.749  -7.837   5.943  0.00  0.00    +0.000 A 
ATOM     10  C   UNL     1       8.294  -6.672   5.418  0.00  0.00    +0.000 A 
BRANCH   8  11
ATOM     11  O   UNL     1       6.282  -8.937   7.413  0.00  0.00    +0.000 OA
ATOM     12  C   UNL     1       5.555  -8.949   8.636  0.00  0.00    +0.000 C 
ENDBRANCH   8  11
ENDBRANCH   4   5
ENDBRANCH   1   3
BRANCH   1  13
ATOM     13  O   UNL     1       7.647  -0.844   4.695  0.00  0.00    +0.000 OA
BRANCH  13  14
ATOM     14  C   UNL     1       7.863   0.183   3.757  0.00  0.00    +0.000 C 
BRANCH  14  15
ATOM     15  C   UNL     1       6.683   0.256   2.800  0.00  0.00    +0.000 C 
ATOM     16  C   UNL     1       5.407  -0.394   3.301  0.00  0.00    +0.000 C 
ENDBRANCH  14  15
BRANCH  14  17
ATOM     17  C   UNL     1       8.036   1.489   4.503  0.00  0.00    +0.000 C 
BRANCH  17  18
ATOM     18  C   UNL     1       9.266   1.544   5.349  0.00  0.00    +0.000 C 
BRANCH  18  20
ATOM     19  C   UNL     1      10.673   2.941   6.864  0.00  0.00    +0.000 C 
ATOM     20  C   UNL     1       9.420   2.876   6.026  0.00  0.00    +0.000 C 
ENDBRANCH  18  20
ENDBRANCH  17  18
ENDBRANCH  14  17
ENDBRANCH  13  14
ENDBRANCH   1  13
TORSDOF 9
