MODEL 1
REMARK VINA RESULT:      -4.2      0.000      0.000
REMARK  Name = orig_f12_ligand
REMARK  12 active torsions:
REMARK  status: ('A' for Active; 'I' for Inactive)
REMARK    1  A    between atoms: C_1  and  C_2
REMARK    2  A    between atoms: C_2  and  C_3
REMARK    3  A    between atoms: C_3  and  C_4
REMARK    4  A    between atoms: C_4  and  C_5
REMARK    5  A    between atoms: C_5  and  C_6
REMARK    6  A    between atoms: C_5  and  O_8
REMARK    7  A    between atoms: C_6  and  C_7
REMARK    8  A    between atoms: O_8  and  C_9
REMARK    9  A    between atoms: C_9  and  C_11
REMARK   10  A    between atoms: C_12  and  C_13
REMARK   11  A    between atoms: C_16  and  O_17
REMARK   12  A    between atoms: O_17  and  C_18
REMARK                            x       y       z     vdW  Elec       q    Type
REMARK                         _______ _______ _______ _____ _____    ______ ____
ROOT
ATOM      1  C   UNL     1       7.416  -2.695  -4.008  0.00  0.00    +0.000 C 
ATOM      2  O   UNL     1       8.298  -3.429  -4.399  0.00  0.00    +0.000 OA
ENDROOT
BRANCH   1   3
ATOM      3  C   UNL     1       7.413  -2.024  -2.702  0.00  0.00    +0.000 C 
ATOM      4  C   UNL     1       8.089  -0.880  -2.552  0.00  0.00    +0.000 C 
BRANCH   4   5
ATOM      5  C   UNL     1       8.233  -0.210  -1.248  0.00  0.00    +0.000 A 
ATOM      6  C   UNL     1       9.410  -0.240  -0.536  0.00  0.00    +0.000 A 
ATOM      7  C   UNL     1       9.521   0.433   0.670  0.00  0.00    +0.000 A 
ATOM      8  C   UNL     1       8.451   1.126   1.168  0.00  0.00    +0.000 A 
ATOM      9  C   UNL     1       7.265   1.164   0.459  0.00  0.00    +0.000 A 
ATOM     10  C   UNL     1       7.157   0.481  -0.746  0.00  0.00    +0.000 A 
BRANCH   8  11
ATOM     11  O   UNL     1       8.508   1.821   2.342  0.00  0.00    +0.000 OA
ATOM     12  C   UNL     1       9.536   1.536   3.284  0.00  0.00    +0.000 C 
ENDBRANCH   8  11
ENDBRANCH   4   5
ENDBRANCH   1   3
BRANCH   1  13
ATOM     13  O   UNL     1       6.318  -2.451  -4.708  0.00  0.00    +0.000 OA
BRANCH  13  14
ATOM     14  C   UNL     1       5.127  -2.137  -4.026  0.00  0.00    +0.000 C 
BRANCH  14  15
ATOM     15  C   UNL     1       4.485  -0.912  -4.660  0.00  0.00    +0.000 C 
ATOM     16  C   UNL     1       4.609   0.368  -3.855  0.00  0.00    +0.000 C 
ENDBRANCH  14  15
BRANCH  14  17
ATOM     17  C   UNL     1       4.200  -3.332  -4.098  0.00  0.00    +0.000 C 
BRANCH  17  18
ATOM     18  C   UNL     1       3.981  -4.006  -2.783  0.00  0.00    +0.000 C 
BRANCH  18  20
ATOM     19  C   UNL     1       5.705  -5.771  -3.157  0.00  0.00    +0.000 C 
ATOM     20  C   UNL     1       4.255  -5.481  -2.859  0.00  0.00    +0.000 C 
ENDBRANCH  18  20
ENDBRANCH  17  18
ENDBRANCH  14  17
ENDBRANCH  13  14
ENDBRANCH   1  13
TORSDOF 9
ENDMDL
MODEL 2
REMARK VINA RESULT:      -4.1      2.151      7.255
REMARK  Name = orig_f12_ligand
REMARK  12 active torsions:
REMARK  status: ('A' for Active; 'I' for Inactive)
REMARK    1  A    between atoms: C_1  and  C_2
REMARK    2  A    between atoms: C_2  and  C_3
REMARK    3  A    between atoms: C_3  and  C_4
REMARK    4  A    between atoms: C_4  and  C_5
REMARK    5  A    between atoms: C_5  and  C_6
REMARK    6  A    between atoms: C_5  and  O_8
REMARK    7  A    between atoms: C_6  and  C_7
REMARK    8  A    between atoms: O_8  and  C_9
REMARK    9  A    between atoms: C_9  and  C_11
REMARK   10  A    between atoms: C_12  and  C_13
REMARK   11  A    between atoms: C_16  and  O_17
REMARK   12  A    between atoms: O_17  and  C_18
REMARK                            x       y       z     vdW  Elec       q    Type
REMARK                         _______ _______ _______ _____ _____    ______ ____
ROOT
ATOM      1  C   UNL     1       8.213  -0.885  -2.096  0.00  0.00    +0.000 C 
ATOM      2  O   UNL     1       9.285  -0.658  -2.616  0.00  0.00    +0.000 OA
ENDROOT
BRANCH   1   3
ATOM      3  C   UNL     1       7.495  -2.163  -2.196  0.00  0.00    +0.000 C 
ATOM      4  C   UNL     1       6.479  -2.277  -3.058  0.00  0.00    +0.000 C 
BRANCH   4   5
ATOM      5  C   UNL     1       5.636  -3.482  -3.132  0.00  0.00    +0.000 A 
ATOM      6  C   UNL     1       6.171  -4.750  -3.137  0.00  0.00    +0.000 A 
ATOM      7  C   UNL     1       5.346  -5.863  -3.170  0.00  0.00    +0.000 A 
ATOM      8  C   UNL     1       3.987  -5.706  -3.207  0.00  0.00    +0.000 A 
ATOM      9  C   UNL     1       3.440  -4.437  -3.200  0.00  0.00    +0.000 A 
ATOM     10  C   UNL     1       4.272  -3.324  -3.175  0.00  0.00    +0.000 A 
BRANCH   8  11
ATOM     11  O   UNL     1       3.126  -6.766  -3.224  0.00  0.00    +0.000 OA
ATOM     12  C   UNL     1       3.100  -7.639  -4.346  0.00  0.00    +0.000 C 
ENDBRANCH   8  11
ENDBRANCH   4   5
ENDBRANCH   1   3
BRANCH   1  13
ATOM     13  O   UNL     1       7.538   0.025  -1.409  0.00  0.00    +0.000 OA
BRANCH  13  14
ATOM     14  C   UNL     1       8.087   0.526  -0.213  0.00  0.00    +0.000 C 
BRANCH  14  15
ATOM     15  C   UNL     1       7.252   1.698   0.280  0.00  0.00    +0.000 C 
ATOM     16  C   UNL     1       5.878   1.331   0.809  0.00  0.00    +0.000 C 
ENDBRANCH  14  15
BRANCH  14  17
ATOM     17  C   UNL     1       8.111  -0.589   0.811  0.00  0.00    +0.000 C 
BRANCH  17  18
ATOM     18  C   UNL     1       9.036  -0.339   1.957  0.00  0.00    +0.000 C 
BRANCH  18  20
ATOM     19  C   UNL     1       8.544   0.984   4.014  0.00  0.00    +0.000 C 
ATOM     20  C   UNL     1       8.305  -0.305   3.268  0.00  0.00    +0.000 C 
ENDBRANCH  18  20
ENDBRANCH  17  18
ENDBRANCH  14  17
ENDBRANCH  13  14
ENDBRANCH   1  13
TORSDOF 9
ENDMDL
MODEL 3
REMARK VINA RESULT:      -4.0      1.811      2.425
REMARK  Name = orig_f12_ligand
REMARK  12 active torsions:
REMARK  status: ('A' for Active; 'I' for Inactive)
REMARK    1  A    between atoms: C_1  and  C_2
REMARK    2  A    between atoms: C_2  and  C_3
REMARK    3  A    between atoms: C_3  and  C_4
REMARK    4  A    between atoms: C_4  and  C_5
REMARK    5  A    between atoms: C_5  and  C_6
REMARK    6  A    between atoms: C_5  and  O_8
REMARK    7  A    between atoms: C_6  and  C_7
REMARK    8  A    between atoms: O_8  and  C_9
REMARK    9  A    between atoms: C_9  and  C_11
REMARK   10  A    between atoms: C_12  and  C_13
REMARK   11  A    between atoms: C_16  and  O_17
REMARK   12  A    between atoms: O_17  and  C_18
REMARK                            x       y       z     vdW  Elec       q    Type
REMARK                         _______ _______ _______ _____ _____    ______ ____
ROOT
ATOM      1  C   UNL     1       8.240  -1.387  -2.875  0.00  0.00    +0.000 C 
ATOM      2  O   UNL     1       9.153  -0.798  -3.415  0.00  0.00    +0.000 OA
ENDROOT
BRANCH   1   3
ATOM      3  C   UNL     1       7.882  -1.243  -1.458  0.00  0.00    +0.000 C 
ATOM      4  C   UNL     1       7.696  -0.019  -0.951  0.00  0.00    +0.000 C 
BRANCH   4   5
ATOM      5  C   UNL     1       7.452   0.214   0.483  0.00  0.00    +0.000 A 
ATOM      6  C   UNL     1       6.519   1.123   0.927  0.00  0.00    +0.000 A 
ATOM      7  C   UNL     1       6.289   1.290   2.283  0.00  0.00    +0.000 A 
ATOM      8  C   UNL     1       6.999   0.555   3.194  0.00  0.00    +0.000 A 
ATOM      9  C   UNL     1       7.937  -0.362   2.756  0.00  0.00    +0.000 A 
ATOM     10  C   UNL     1       8.169  -0.520   1.396  0.00  0.00    +0.000 A 
BRANCH   8  11
ATOM     11  O   UNL     1       6.803   0.666   4.540  0.00  0.00    +0.000 OA
ATOM     12  C   UNL     1       7.549  -0.154   5.434  0.00  0.00    +0.000 C 
ENDBRANCH   8  11
ENDBRANCH   4   5
ENDBRANCH   1   3
BRANCH   1  13
ATOM     13  O   UNL     1       7.484  -2.275  -3.504  0.00  0.00    +0.000 OA
BRANCH  13  14
ATOM     14  C   UNL     1       6.116  -2.356  -3.185  0.00  0.00    +0.000 C 
BRANCH  14  15
ATOM     15  C   UNL     1       5.302  -1.625  -4.242  0.00  0.00    +0.000 C 
ATOM     16  C   UNL     1       4.813  -0.247  -3.838  0.00  0.00    +0.000 C 
ENDBRANCH  14  15
BRANCH  14  17
ATOM     17  C   UNL     1       5.723  -3.817  -3.115  0.00  0.00    +0.000 C 
BRANCH  17  18
ATOM     18  C   UNL     1       4.312  -4.084  -3.527  0.00  0.00    +0.000 C 
BRANCH  18  20
ATOM     19  C   UNL     1       1.995  -4.573  -2.741  0.00  0.00    +0.000 C 
ATOM     20  C   UNL     1       3.449  -4.459  -2.356  0.00  0.00    +0.000 C 
ENDBRANCH  18  20
ENDBRANCH  17  18
ENDBRANCH  14  17
ENDBRANCH  13  14
ENDBRANCH   1  13
TORSDOF 9
ENDMDL
MODEL 4
REMARK VINA RESULT:      -4.0      1.844      6.926
REMARK  Name = orig_f12_ligand
REMARK  12 active torsions:
REMARK  status: ('A' for Active; 'I' for Inactive)
REMARK    1  A    between atoms: C_1  and  C_2
REMARK    2  A    between atoms: C_2  and  C_3
REMARK    3  A    between atoms: C_3  and  C_4
REMARK    4  A    between atoms: C_4  and  C_5
REMARK    5  A    between atoms: C_5  and  C_6
REMARK    6  A    between atoms: C_5  and  O_8
REMARK    7  A    between atoms: C_6  and  C_7
REMARK    8  A    between atoms: O_8  and  C_9
REMARK    9  A    between atoms: C_9  and  C_11
REMARK   10  A    between atoms: C_12  and  C_13
REMARK   11  A    between atoms: C_16  and  O_17
REMARK   12  A    between atoms: O_17  and  C_18
REMARK                            x       y       z     vdW  Elec       q    Type
REMARK                         _______ _______ _______ _____ _____    ______ ____
ROOT
ATOM      1  C   UNL     1       9.689   0.172  -0.838  0.00  0.00    +0.000 C 
ATOM      2  O   UNL     1      10.577   0.472  -1.607  0.00  0.00    +0.000 OA
ENDROOT
BRANCH   1   3
ATOM      3  C   UNL     1       8.564  -0.712  -1.172  0.00  0.00    +0.000 C 
ATOM      4  C   UNL     1       8.282  -0.956  -2.456  0.00  0.00    +0.000 C 
BRANCH   4   5
ATOM      5  C   UNL     1       7.102  -1.733  -2.873  0.00  0.00    +0.000 A 
ATOM      6  C   UNL     1       7.088  -3.109  -2.852  0.00  0.00    +0.000 A 
ATOM      7  C   UNL     1       5.947  -3.807  -3.215  0.00  0.00    +0.000 A 
ATOM      8  C   UNL     1       4.826  -3.128  -3.609  0.00  0.00    +0.000 A 
ATOM      9  C   UNL     1       4.830  -1.746  -3.631  0.00  0.00    +0.000 A 
ATOM     10  C   UNL     1       5.978  -1.051  -3.274  0.00  0.00    +0.000 A 
BRANCH   8  11
ATOM     11  O   UNL     1       3.669  -3.763  -3.962  0.00  0.00    +0.000 OA
ATOM     12  C   UNL     1       2.892  -4.422  -2.969  0.00  0.00    +0.000 C 
ENDBRANCH   8  11
ENDBRANCH   4   5
ENDBRANCH   1   3
BRANCH   1  13
ATOM     13  O   UNL     1       9.608   0.655   0.393  0.00  0.00    +0.000 OA
BRANCH  13  14
ATOM     14  C   UNL     1       9.129  -0.175   1.424  0.00  0.00    +0.000 C 
BRANCH  14  15
ATOM     15  C   UNL     1      10.298  -0.676   2.259  0.00  0.00    +0.000 C 
ATOM     16  C   UNL     1      10.623   0.165   3.479  0.00  0.00    +0.000 C 
ENDBRANCH  14  15
BRANCH  14  17
ATOM     17  C   UNL     1       8.159   0.620   2.272  0.00  0.00    +0.000 C 
BRANCH  17  18
ATOM     18  C   UNL     1       6.747   0.143   2.184  0.00  0.00    +0.000 C 
BRANCH  18  20
ATOM     19  C   UNL     1       6.093   1.568   0.243  0.00  0.00    +0.000 C 
ATOM     20  C   UNL     1       5.823   1.217   1.685  0.00  0.00    +0.000 C 
ENDBRANCH  18  20
ENDBRANCH  17  18
ENDBRANCH  14  17
ENDBRANCH  13  14
ENDBRANCH   1  13
TORSDOF 9
ENDMDL
MODEL 5
REMARK VINA RESULT:      -3.9      1.513      2.320
REMARK  Name = orig_f12_ligand
REMARK  12 active torsions:
REMARK  status: ('A' for Active; 'I' for Inactive)
REMARK    1  A    between atoms: C_1  and  C_2
REMARK    2  A    between atoms: C_2  and  C_3
REMARK    3  A    between atoms: C_3  and  C_4
REMARK    4  A    between atoms: C_4  and  C_5
REMARK    5  A    between atoms: C_5  and  C_6
REMARK    6  A    between atoms: C_5  and  O_8
REMARK    7  A    between atoms: C_6  and  C_7
REMARK    8  A    between atoms: O_8  and  C_9
REMARK    9  A    between atoms: C_9  and  C_11
REMARK   10  A    between atoms: C_12  and  C_13
REMARK   11  A    between atoms: C_16  and  O_17
REMARK   12  A    between atoms: O_17  and  C_18
REMARK                            x       y       z     vdW  Elec       q    Type
REMARK                         _______ _______ _______ _____ _____    ______ ____
ROOT
ATOM      1  C   UNL     1       5.982  -1.253  -4.212  0.00  0.00    +0.000 C 
ATOM      2  O   UNL     1       5.760  -0.479  -5.118  0.00  0.00    +0.000 OA
ENDROOT
BRANCH   1   3
ATOM      3  C   UNL     1       6.564  -0.874  -2.918  0.00  0.00    +0.000 C 
ATOM      4  C   UNL     1       7.893  -0.795  -2.796  0.00  0.00    +0.000 C 
BRANCH   4   5
ATOM      5  C   UNL     1       8.555  -0.538  -1.505  0.00  0.00    +0.000 A 
ATOM      6  C   UNL     1       9.820  -0.001  -1.427  0.00  0.00    +0.000 A 
ATOM      7  C   UNL     1      10.398   0.263  -0.195  0.00  0.00    +0.000 A 
ATOM      8  C   UNL     1       9.714  -0.020   0.956  0.00  0.00    +0.000 A 
ATOM      9  C   UNL     1       8.442  -0.557   0.887  0.00  0.00    +0.000 A 
ATOM     10  C   UNL     1       7.871  -0.827  -0.350  0.00  0.00    +0.000 A 
BRANCH   8  11
ATOM     11  O   UNL     1      10.227   0.234   2.196  0.00  0.00    +0.000 OA
ATOM     12  C   UNL     1      10.345   1.576   2.652  0.00  0.00    +0.000 C 
ENDBRANCH   8  11
ENDBRANCH   4   5
ENDBRANCH   1   3
BRANCH   1  13
ATOM     13  O   UNL     1       5.765  -2.557  -4.309  0.00  0.00    +0.000 OA
BRANCH  13  14
ATOM     14  C   UNL     1       5.317  -3.263  -3.177  0.00  0.00    +0.000 C 
BRANCH  14  15
ATOM     15  C   UNL     1       3.864  -3.669  -3.372  0.00  0.00    +0.000 C 
ATOM     16  C   UNL     1       3.283  -4.530  -2.266  0.00  0.00    +0.000 C 
ENDBRANCH  14  15
BRANCH  14  17
ATOM     17  C   UNL     1       6.198  -4.479  -2.987  0.00  0.00    +0.000 C 
BRANCH  17  18
ATOM     18  C   UNL     1       6.626  -5.122  -4.266  0.00  0.00    +0.000 C 
BRANCH  18  20
ATOM     19  C   UNL     1       5.990  -7.237  -3.106  0.00  0.00    +0.000 C 
ATOM     20  C   UNL     1       6.048  -6.499  -4.421  0.00  0.00    +0.000 C 
ENDBRANCH  18  20
ENDBRANCH  17  18
ENDBRANCH  14  17
ENDBRANCH  13  14
ENDBRANCH   1  13
TORSDOF 9
ENDMDL
MODEL 6
REMARK VINA RESULT:      -3.9      3.486      6.901
REMARK  Name = orig_f12_ligand
REMARK  12 active torsions:
REMARK  status: ('A' for Active; 'I' for Inactive)
REMARK    1  A    between atoms: C_1  and  C_2
REMARK    2  A    between atoms: C_2  and  C_3
REMARK    3  A    between atoms: C_3  and  C_4
REMARK    4  A    between atoms: C_4  and  C_5
REMARK    5  A    between atoms: C_5  and  C_6
REMARK    6  A    between atoms: C_5  and  O_8
REMARK    7  A    between atoms: C_6  and  C_7
REMARK    8  A    between atoms: O_8  and  C_9
REMARK    9  A    between atoms: C_9  and  C_11
REMARK   10  A    between atoms: C_12  and  C_13
REMARK   11  A    between atoms: C_16  and  O_17
REMARK   12  A    between atoms: O_17  and  C_18
REMARK                            x       y       z     vdW  Elec       q    Type
REMARK                         _______ _______ _______ _____ _____    ______ ____
ROOT
ATOM      1  C   UNL     1       6.175   1.010   1.317  0.00  0.00    +0.000 C 
ATOM      2  O   UNL     1       5.119   1.606   1.287  0.00  0.00    +0.000 OA
ENDROOT
BRANCH   1   3
ATOM      3  C   UNL     1       6.564   0.062   2.369  0.00  0.00    +0.000 C 
ATOM      4  C   UNL     1       6.875   0.525   3.585  0.00  0.00    +0.000 C 
BRANCH   4   5
ATOM      5  C   UNL     1       7.388  -0.347   4.656  0.00  0.00    +0.000 A 
ATOM      6  C   UNL     1       7.864  -1.613   4.403  0.00  0.00    +0.000 A 
ATOM      7  C   UNL     1       8.374  -2.392   5.429  0.00  0.00    +0.000 A 
ATOM      8  C   UNL     1       8.399  -1.907   6.709  0.00  0.00    +0.000 A 
ATOM      9  C   UNL     1       7.925  -0.635   6.972  0.00  0.00    +0.000 A 
ATOM     10  C   UNL     1       7.407   0.139   5.941  0.00  0.00    +0.000 A 
BRANCH   8  11
ATOM     11  O   UNL     1       8.905  -2.622   7.756  0.00  0.00    +0.000 OA
ATOM     12  C   UNL     1       9.692  -3.780   7.507  0.00  0.00    +0.000 C 
ENDBRANCH   8  11
ENDBRANCH   4   5
ENDBRANCH   1   3
BRANCH   1  13
ATOM     13  O   UNL     1       7.128   1.188   0.414  0.00  0.00    +0.000 OA
BRANCH  13  14
ATOM     14  C   UNL     1       7.882   0.078  -0.013  0.00  0.00    +0.000 C 
BRANCH  14  15
ATOM     15  C   UNL     1       7.595  -0.198  -1.481  0.00  0.00    +0.000 C 
ATOM     16  C   UNL     1       7.657  -1.659  -1.885  0.00  0.00    +0.000 C 
ENDBRANCH  14  15
BRANCH  14  17
ATOM     17  C   UNL     1       9.349   0.380   0.204  0.00  0.00    +0.000 C 
BRANCH  17  18
ATOM     18  C   UNL     1       9.950  -0.344   1.365  0.00  0.00    +0.000 C 
BRANCH  18  20
ATOM     19  C   UNL     1      10.135   1.818   2.599  0.00  0.00    +0.000 C 
ATOM     20  C   UNL     1      10.840   0.550   2.181  0.00  0.00    +0.000 C 
ENDBRANCH  18  20
ENDBRANCH  17  18
ENDBRANCH  14  17
ENDBRANCH  13  14
ENDBRANCH   1  13
TORSDOF 9
ENDMDL
MODEL 7
REMARK VINA RESULT:      -3.9      2.895      7.318
REMARK  Name = orig_f12_ligand
REMARK  12 active torsions:
REMARK  status: ('A' for Active; 'I' for Inactive)
REMARK    1  A    between atoms: C_1  and  C_2
REMARK    2  A    between atoms: C_2  and  C_3
REMARK    3  A    between atoms: C_3  and  C_4
REMARK    4  A    between atoms: C_4  and  C_5
REMARK    5  A    between atoms: C_5  and  C_6
REMARK    6  A    between atoms: C_5  and  O_8
REMARK    7  A    between atoms: C_6  and  C_7
REMARK    8  A    between atoms: O_8  and  C_9
REMARK    9  A    between atoms: C_9  and  C_11
REMARK   10  A    between atoms: C_12  and  C_13
REMARK   11  A    between atoms: C_16  and  O_17
REMARK   12  A    between atoms: O_17  and  C_18
REMARK                            x       y       z     vdW  Elec       q    Type
REMARK                         _______ _______ _______ _____ _____    ______ ____
ROOT
ATOM      1  C   UNL     1       6.617   0.899   1.547  0.00  0.00    +0.000 C 
ATOM      2  O   UNL     1       5.853   1.807   1.796  0.00  0.00    +0.000 OA
ENDROOT
BRANCH   1   3
ATOM      3  C   UNL     1       7.189   0.636   0.219  0.00  0.00    +0.000 C 
ATOM      4  C   UNL     1       7.496  -0.620  -0.124  0.00  0.00    +0.000 C 
BRANCH   4   5
ATOM      5  C   UNL     1       8.180  -0.950  -1.386  0.00  0.00    +0.000 A 
ATOM      6  C   UNL     1       7.699  -1.907  -2.250  0.00  0.00    +0.000 A 
ATOM      7  C   UNL     1       8.348  -2.166  -3.447  0.00  0.00    +0.000 A 
ATOM      8  C   UNL     1       9.484  -1.474  -3.773  0.00  0.00    +0.000 A 
ATOM      9  C   UNL     1       9.973  -0.509  -2.912  0.00  0.00    +0.000 A 
ATOM     10  C   UNL     1       9.323  -0.259  -1.710  0.00  0.00    +0.000 A 
BRANCH   8  11
ATOM     11  O   UNL     1      10.155  -1.675  -4.944  0.00  0.00    +0.000 OA
ATOM     12  C   UNL     1      10.569  -2.987  -5.307  0.00  0.00    +0.000 C 
ENDBRANCH   8  11
ENDBRANCH   4   5
ENDBRANCH   1   3
BRANCH   1  13
ATOM     13  O   UNL     1       6.988   0.001   2.447  0.00  0.00    +0.000 OA
BRANCH  13  14
ATOM     14  C   UNL     1       7.941   0.359   3.419  0.00  0.00    +0.000 C 
BRANCH  14  15
ATOM     15  C   UNL     1       7.258   0.518   4.769  0.00  0.00    +0.000 C 
ATOM     16  C   UNL     1       6.920   1.946   5.154  0.00  0.00    +0.000 C 
ENDBRANCH  14  15
BRANCH  14  17
ATOM     17  C   UNL     1       9.003  -0.719   3.474  0.00  0.00    +0.000 C 
BRANCH  17  18
ATOM     18  C   UNL     1       9.996  -0.646   2.361  0.00  0.00    +0.000 C 
BRANCH  18  20
ATOM     19  C   UNL     1      11.654   0.843   1.238  0.00  0.00    +0.000 C 
ATOM     20  C   UNL     1      10.383   0.771   2.047  0.00  0.00    +0.000 C 
ENDBRANCH  18  20
ENDBRANCH  17  18
ENDBRANCH  14  17
ENDBRANCH  13  14
ENDBRANCH   1  13
TORSDOF 9
ENDMDL
MODEL 8
REMARK VINA RESULT:      -3.7      6.308      8.762
REMARK  Name = orig_f12_ligand
REMARK  12 active torsions:
REMARK  status: ('A' for Active; 'I' for Inactive)
REMARK    1  A    between atoms: C_1  and  C_2
REMARK    2  A    between atoms: C_2  and  C_3
REMARK    3  A    between atoms: C_3  and  C_4
REMARK    4  A    between atoms: C_4  and  C_5
REMARK    5  A    between atoms: C_5  and  C_6
REMARK    6  A    between atoms: C_5  and  O_8
REMARK    7  A    between atoms: C_6  and  C_7
REMARK    8  A    between atoms: O_8  and  C_9
REMARK    9  A    between atoms: C_9  and  C_11
REMARK   10  A    between atoms: C_12  and  C_13
REMARK   11  A    between atoms: C_16  and  O_17
REMARK   12  A    between atoms: O_17  and  C_18
REMARK                            x       y       z     vdW  Elec       q    Type
REMARK                         _______ _______ _______ _____ _____    ______ ____
ROOT
ATOM      1  C   UNL     1       9.042  -3.850   6.328  0.00  0.00    +0.000 C 
ATOM      2  O   UNL     1      10.165  -4.258   6.537  0.00  0.00    +0.000 OA
ENDROOT
BRANCH   1   3
ATOM      3  C   UNL     1       8.697  -2.858   5.301  0.00  0.00    +0.000 C 
ATOM      4  C   UNL     1       7.970  -1.789   5.643  0.00  0.00    +0.000 C 
BRANCH   4   5
ATOM      5  C   UNL     1       7.483  -0.813   4.652  0.00  0.00    +0.000 A 
ATOM      6  C   UNL     1       7.374   0.528   4.939  0.00  0.00    +0.000 A 
ATOM      7  C   UNL     1       6.948   1.423   3.971  0.00  0.00    +0.000 A 
ATOM      8  C   UNL     1       6.622   0.974   2.720  0.00  0.00    +0.000 A 
ATOM      9  C   UNL     1       6.730  -0.371   2.422  0.00  0.00    +0.000 A 
ATOM     10  C   UNL     1       7.150  -1.266   3.399  0.00  0.00    +0.000 A 
BRANCH   8  11
ATOM     11  O   UNL     1       6.212   1.812   1.722  0.00  0.00    +0.000 OA
ATOM     12  C   UNL     1       6.435   1.455   0.363  0.00  0.00    +0.000 C 
ENDBRANCH   8  11
ENDBRANCH   4   5
ENDBRANCH   1   3
BRANCH   1  13
ATOM     13  O   UNL     1       7.994  -4.225   7.046  0.00  0.00    +0.000 OA
BRANCH  13  14
ATOM     14  C   UNL     1       7.565  -5.564   6.983  0.00  0.00    +0.000 C 
BRANCH  14  15
ATOM     15  C   UNL     1       7.395  -6.112   8.392  0.00  0.00    +0.000 C 
ATOM     16  C   UNL     1       6.194  -7.017   8.591  0.00  0.00    +0.000 C 
ENDBRANCH  14  15
BRANCH  14  17
ATOM     17  C   UNL     1       6.258  -5.617   6.222  0.00  0.00    +0.000 C 
BRANCH  17  18
ATOM     18  C   UNL     1       6.361  -6.284   4.889  0.00  0.00    +0.000 C 
BRANCH  18  20
ATOM     19  C   UNL     1       6.796  -8.693   4.403  0.00  0.00    +0.000 C 
ATOM     20  C   UNL     1       5.804  -7.679   4.917  0.00  0.00    +0.000 C 
ENDBRANCH  18  20
ENDBRANCH  17  18
ENDBRANCH  14  17
ENDBRANCH  13  14
ENDBRANCH   1  13
TORSDOF 9
ENDMDL
MODEL 9
REMARK VINA RESULT:      -3.6      5.276      8.173
REMARK  Name = orig_f12_ligand
REMARK  12 active torsions:
REMARK  status: ('A' for Active; 'I' for Inactive)
REMARK    1  A    between atoms: C_1  and  C_2
REMARK    2  A    between atoms: C_2  and  C_3
REMARK    3  A    between atoms: C_3  and  C_4
REMARK    4  A    between atoms: C_4  and  C_5
REMARK    5  A    between atoms: C_5  and  C_6
REMARK    6  A    between atoms: C_5  and  O_8
REMARK    7  A    between atoms: C_6  and  C_7
REMARK    8  A    between atoms: O_8  and  C_9
REMARK    9  A    between atoms: C_9  and  C_11
REMARK   10  A    between atoms: C_12  and  C_13
REMARK   11  A    between atoms: C_16  and  O_17
REMARK   12  A    between atoms: O_17  and  C_18
REMARK                            x       y       z     vdW  Elec       q    Type
REMARK                         _______ _______ _______ _____ _____    ______ ____
ROOT
ATOM      1  C   UNL     1       6.956   1.880   4.413  0.00  0.00    +0.000 C 
ATOM      2  O   UNL     1       6.649   2.892   5.007  0.00  0.00    +0.000 OA
ENDROOT
BRANCH   1   3
ATOM      3  C   UNL     1       6.989   0.541   5.016  0.00  0.00    +0.000 C 
ATOM      4  C   UNL     1       8.131   0.090   5.546  0.00  0.00    +0.000 C 
BRANCH   4   5
ATOM      5  C   UNL     1       8.277  -1.282   6.061  0.00  0.00    +0.000 A 
ATOM      6  C   UNL     1       8.265  -2.380   5.230  0.00  0.00    +0.000 A 
ATOM      7  C   UNL     1       8.442  -3.654   5.744  0.00  0.00    +0.000 A 
ATOM      8  C   UNL     1       8.621  -3.830   7.090  0.00  0.00    +0.000 A 
ATOM      9  C   UNL     1       8.637  -2.734   7.931  0.00  0.00    +0.000 A 
ATOM     10  C   UNL     1       8.450  -1.459   7.412  0.00  0.00    +0.000 A 
BRANCH   8  11
ATOM     11  O   UNL     1       8.817  -5.060   7.650  0.00  0.00    +0.000 OA
ATOM     12  C   UNL     1       8.256  -5.355   8.924  0.00  0.00    +0.000 C 
ENDBRANCH   8  11
ENDBRANCH   4   5
ENDBRANCH   1   3
BRANCH   1  13
ATOM     13  O   UNL     1       7.348   1.878   3.147  0.00  0.00    +0.000 OA
BRANCH  13  14
ATOM     14  C   UNL     1       6.861   0.880   2.282  0.00  0.00    +0.000 C 
BRANCH  14  15
ATOM     15  C   UNL     1       5.615   1.385   1.571  0.00  0.00    +0.000 C 
ATOM     16  C   UNL     1       5.752   1.550   0.069  0.00  0.00    +0.000 C 
ENDBRANCH  14  15
BRANCH  14  17
ATOM     17  C   UNL     1       7.948   0.533   1.287  0.00  0.00    +0.000 C 
BRANCH  17  18
ATOM     18  C   UNL     1       8.742  -0.677   1.656  0.00  0.00    +0.000 C 
BRANCH  18  20
ATOM     19  C   UNL     1      10.786  -0.709   3.087  0.00  0.00    +0.000 C 
ATOM     20  C   UNL     1      10.213  -0.380   1.731  0.00  0.00    +0.000 C 
ENDBRANCH  18  20
ENDBRANCH  17  18
ENDBRANCH  14  17
ENDBRANCH  13  14
ENDBRANCH   1  13
TORSDOF 9
ENDMDL
