REMARK  Name = bgox31_5_ligand
REMARK  5 active torsions:
REMARK  status: ('A' for Active; 'I' for Inactive)
REMARK    1  A    between atoms: C_1  and  O_2
REMARK    2  A    between atoms: O_2  and  C_3
REMARK    3  A    between atoms: C_6  and  C_7
REMARK    4  A    between atoms: C_7  and  C_9
REMARK    5  A    between atoms: C_15  and  O_16
REMARK                            x       y       z     vdW  Elec       q    Type
REMARK                         _______ _______ _______ _____ _____    ______ ____
ROOT
ATOM      1  C   UNL     1       6.171  -0.223   0.584  0.00  0.00    +0.000 A 
ATOM      2  C   UNL     1       7.181  -1.131   0.640  0.00  0.00    +0.000 A 
ATOM      3  C   UNL     1       7.480  -1.757   1.869  0.00  0.00    +0.000 A 
ATOM      4  C   UNL     1       6.797  -1.478   3.035  0.00  0.00    +0.000 A 
ATOM      5  C   UNL     1       5.771  -0.538   2.979  0.00  0.00    +0.000 A 
ATOM      6  C   UNL     1       5.458   0.101   1.748  0.00  0.00    +0.000 A 
ENDROOT
BRANCH   1   8
ATOM      7  C   UNL     1       5.206   1.536  -0.935  0.00  0.00    +0.000 C 
ATOM      8  O   UNL     1       5.998   0.331  -0.734  0.00  0.00    +0.000 OA
ENDBRANCH   1   8
BRANCH   4   9
ATOM      9  C   UNL     1       7.171  -2.141   4.261  0.00  0.00    +0.000 C 
ATOM     10  O   UNL     1       6.853  -1.621   5.338  0.00  0.00    +0.000 OA
BRANCH   9  11
ATOM     11  C   UNL     1       8.021  -3.373   4.226  0.00  0.00    +0.000 A 
ATOM     12  C   UNL     1       9.230  -3.508   4.886  0.00  0.00    +0.000 A 
ATOM     13  C   UNL     1       9.989  -4.708   4.806  0.00  0.00    +0.000 A 
ATOM     14  C   UNL     1       9.561  -5.786   4.091  0.00  0.00    +0.000 A 
ATOM     15  C   UNL     1       8.353  -5.701   3.441  0.00  0.00    +0.000 A 
ATOM     16  C   UNL     1       7.622  -4.491   3.497  0.00  0.00    +0.000 A 
ENDBRANCH   9  11
ENDBRANCH   4   9
BRANCH   5  17
ATOM     17  O   UNL     1       5.070  -0.247   4.102  0.00  0.00    +0.000 OA
ATOM     18  H   UNL     1       4.339   0.420   4.070  0.00  0.00    +0.000 HD
ENDBRANCH   5  17
TORSDOF 4
