MODEL 1
REMARK VINA RESULT:      -5.0      0.000      0.000
REMARK  Name = bgox31_5_ligand
REMARK  5 active torsions:
REMARK  status: ('A' for Active; 'I' for Inactive)
REMARK    1  A    between atoms: C_1  and  O_2
REMARK    2  A    between atoms: O_2  and  C_3
REMARK    3  A    between atoms: C_6  and  C_7
REMARK    4  A    between atoms: C_7  and  C_9
REMARK    5  A    between atoms: C_15  and  O_16
REMARK                            x       y       z     vdW  Elec       q    Type
REMARK                         _______ _______ _______ _____ _____    ______ ____
ROOT
ATOM      1  C   UNL     1       5.054   0.179   1.617  0.00  0.00    +0.000 A 
ATOM      2  C   UNL     1       4.134  -0.403   2.430  0.00  0.00    +0.000 A 
ATOM      3  C   UNL     1       4.567  -1.078   3.591  0.00  0.00    +0.000 A 
ATOM      4  C   UNL     1       5.897  -1.188   3.939  0.00  0.00    +0.000 A 
ATOM      5  C   UNL     1       6.840  -0.602   3.098  0.00  0.00    +0.000 A 
ATOM      6  C   UNL     1       6.419   0.081   1.925  0.00  0.00    +0.000 A 
ENDROOT
BRANCH   1   8
ATOM      7  C   UNL     1       5.275   1.238  -0.655  0.00  0.00    +0.000 C 
ATOM      8  O   UNL     1       4.456   0.817   0.473  0.00  0.00    +0.000 OA
ENDBRANCH   1   8
BRANCH   4   9
ATOM      9  C   UNL     1       6.269  -1.912   5.131  0.00  0.00    +0.000 C 
ATOM     10  O   UNL     1       6.959  -2.932   5.015  0.00  0.00    +0.000 OA
BRANCH   9  11
ATOM     11  C   UNL     1       5.737  -1.494   6.467  0.00  0.00    +0.000 A 
ATOM     12  C   UNL     1       5.814  -0.208   6.972  0.00  0.00    +0.000 A 
ATOM     13  C   UNL     1       5.290   0.119   8.253  0.00  0.00    +0.000 A 
ATOM     14  C   UNL     1       4.674  -0.809   9.039  0.00  0.00    +0.000 A 
ATOM     15  C   UNL     1       4.555  -2.092   8.562  0.00  0.00    +0.000 A 
ATOM     16  C   UNL     1       5.111  -2.416   7.302  0.00  0.00    +0.000 A 
ENDBRANCH   9  11
ENDBRANCH   4   9
BRANCH   5  17
ATOM     17  O   UNL     1       8.156  -0.680   3.414  0.00  0.00    +0.000 OA
ATOM     18  H   UNL     1       8.842  -0.516   2.719  0.00  0.00    +0.000 HD
ENDBRANCH   5  17
TORSDOF 4
ENDMDL
MODEL 2
REMARK VINA RESULT:      -4.9      2.148      7.038
REMARK  Name = bgox31_5_ligand
REMARK  5 active torsions:
REMARK  status: ('A' for Active; 'I' for Inactive)
REMARK    1  A    between atoms: C_1  and  O_2
REMARK    2  A    between atoms: O_2  and  C_3
REMARK    3  A    between atoms: C_6  and  C_7
REMARK    4  A    between atoms: C_7  and  C_9
REMARK    5  A    between atoms: C_15  and  O_16
REMARK                            x       y       z     vdW  Elec       q    Type
REMARK                         _______ _______ _______ _____ _____    ______ ____
ROOT
ATOM      1  C   UNL     1       5.654  -1.048   3.591  0.00  0.00    +0.000 A 
ATOM      2  C   UNL     1       6.807  -0.654   2.988  0.00  0.00    +0.000 A 
ATOM      3  C   UNL     1       6.741   0.109   1.803  0.00  0.00    +0.000 A 
ATOM      4  C   UNL     1       5.547   0.468   1.211  0.00  0.00    +0.000 A 
ATOM      5  C   UNL     1       4.367   0.052   1.822  0.00  0.00    +0.000 A 
ATOM      6  C   UNL     1       4.418  -0.717   3.017  0.00  0.00    +0.000 A 
ENDROOT
BRANCH   1   8
ATOM      7  C   UNL     1       5.537  -1.301   6.092  0.00  0.00    +0.000 C 
ATOM      8  O   UNL     1       5.890  -1.825   4.780  0.00  0.00    +0.000 OA
ENDBRANCH   1   8
BRANCH   4   9
ATOM      9  C   UNL     1       5.555   1.232  -0.013  0.00  0.00    +0.000 C 
ATOM     10  O   UNL     1       4.663   1.027  -0.847  0.00  0.00    +0.000 OA
BRANCH   9  11
ATOM     11  C   UNL     1       6.682   2.172  -0.311  0.00  0.00    +0.000 A 
ATOM     12  C   UNL     1       6.896   3.370   0.347  0.00  0.00    +0.000 A 
ATOM     13  C   UNL     1       7.987   4.217   0.010  0.00  0.00    +0.000 A 
ATOM     14  C   UNL     1       8.881   3.889  -0.965  0.00  0.00    +0.000 A 
ATOM     15  C   UNL     1       8.717   2.695  -1.626  0.00  0.00    +0.000 A 
ATOM     16  C   UNL     1       7.609   1.875  -1.308  0.00  0.00    +0.000 A 
ENDBRANCH   9  11
ENDBRANCH   4   9
BRANCH   5  17
ATOM     17  O   UNL     1       3.175   0.396   1.276  0.00  0.00    +0.000 OA
ATOM     18  H   UNL     1       2.376   0.491   1.853  0.00  0.00    +0.000 HD
ENDBRANCH   5  17
TORSDOF 4
ENDMDL
MODEL 3
REMARK VINA RESULT:      -4.7      2.293      7.057
REMARK  Name = bgox31_5_ligand
REMARK  5 active torsions:
REMARK  status: ('A' for Active; 'I' for Inactive)
REMARK    1  A    between atoms: C_1  and  O_2
REMARK    2  A    between atoms: O_2  and  C_3
REMARK    3  A    between atoms: C_6  and  C_7
REMARK    4  A    between atoms: C_7  and  C_9
REMARK    5  A    between atoms: C_15  and  O_16
REMARK                            x       y       z     vdW  Elec       q    Type
REMARK                         _______ _______ _______ _____ _____    ______ ____
ROOT
ATOM      1  C   UNL     1       5.455  -1.008   4.103  0.00  0.00    +0.000 A 
ATOM      2  C   UNL     1       6.689  -0.858   3.553  0.00  0.00    +0.000 A 
ATOM      3  C   UNL     1       6.804  -0.331   2.249  0.00  0.00    +0.000 A 
ATOM      4  C   UNL     1       5.710   0.031   1.490  0.00  0.00    +0.000 A 
ATOM      5  C   UNL     1       4.446  -0.135   2.050  0.00  0.00    +0.000 A 
ATOM      6  C   UNL     1       4.314  -0.665   3.363  0.00  0.00    +0.000 A 
ENDROOT
BRANCH   1   8
ATOM      7  C   UNL     1       5.322  -0.716   6.599  0.00  0.00    +0.000 C 
ATOM      8  O   UNL     1       5.506  -1.564   5.430  0.00  0.00    +0.000 OA
ENDBRANCH   1   8
BRANCH   4   9
ATOM      9  C   UNL     1       5.902   0.544   0.154  0.00  0.00    +0.000 C 
ATOM     10  O   UNL     1       5.420   1.647  -0.133  0.00  0.00    +0.000 OA
BRANCH   9  11
ATOM     11  C   UNL     1       6.574  -0.294  -0.888  0.00  0.00    +0.000 A 
ATOM     12  C   UNL     1       7.025   0.186  -2.106  0.00  0.00    +0.000 A 
ATOM     13  C   UNL     1       7.654  -0.669  -3.053  0.00  0.00    +0.000 A 
ATOM     14  C   UNL     1       7.856  -1.993  -2.807  0.00  0.00    +0.000 A 
ATOM     15  C   UNL     1       7.445  -2.504  -1.599  0.00  0.00    +0.000 A 
ATOM     16  C   UNL     1       6.789  -1.654  -0.677  0.00  0.00    +0.000 A 
ENDBRANCH   9  11
ENDBRANCH   4   9
BRANCH   5  17
ATOM     17  O   UNL     1       3.348   0.221   1.339  0.00  0.00    +0.000 OA
ATOM     18  H   UNL     1       2.446   0.106   1.731  0.00  0.00    +0.000 HD
ENDBRANCH   5  17
TORSDOF 4
ENDMDL
MODEL 4
REMARK VINA RESULT:      -4.7      3.567      5.904
REMARK  Name = bgox31_5_ligand
REMARK  5 active torsions:
REMARK  status: ('A' for Active; 'I' for Inactive)
REMARK    1  A    between atoms: C_1  and  O_2
REMARK    2  A    between atoms: O_2  and  C_3
REMARK    3  A    between atoms: C_6  and  C_7
REMARK    4  A    between atoms: C_7  and  C_9
REMARK    5  A    between atoms: C_15  and  O_16
REMARK                            x       y       z     vdW  Elec       q    Type
REMARK                         _______ _______ _______ _____ _____    ______ ____
ROOT
ATOM      1  C   UNL     1       8.900   3.652  -0.855  0.00  0.00    +0.000 A 
ATOM      2  C   UNL     1       8.046   3.940   0.163  0.00  0.00    +0.000 A 
ATOM      3  C   UNL     1       6.939   3.096   0.395  0.00  0.00    +0.000 A 
ATOM      4  C   UNL     1       6.670   1.986  -0.380  0.00  0.00    +0.000 A 
ATOM      5  C   UNL     1       7.539   1.700  -1.430  0.00  0.00    +0.000 A 
ATOM      6  C   UNL     1       8.659   2.541  -1.676  0.00  0.00    +0.000 A 
ENDROOT
BRANCH   1   8
ATOM      7  C   UNL     1       9.712   5.955  -1.462  0.00  0.00    +0.000 C 
ATOM      8  O   UNL     1       9.969   4.610  -0.967  0.00  0.00    +0.000 OA
ENDBRANCH   1   8
BRANCH   4   9
ATOM      9  C   UNL     1       5.507   1.179  -0.097  0.00  0.00    +0.000 C 
ATOM     10  O   UNL     1       4.549   1.226  -0.879  0.00  0.00    +0.000 OA
BRANCH   9  11
ATOM     11  C   UNL     1       5.424   0.390   1.172  0.00  0.00    +0.000 A 
ATOM     12  C   UNL     1       6.520  -0.050   1.893  0.00  0.00    +0.000 A 
ATOM     13  C   UNL     1       6.368  -0.800   3.092  0.00  0.00    +0.000 A 
ATOM     14  C   UNL     1       5.141  -1.110   3.598  0.00  0.00    +0.000 A 
ATOM     15  C   UNL     1       4.026  -0.669   2.925  0.00  0.00    +0.000 A 
ATOM     16  C   UNL     1       4.188   0.045   1.714  0.00  0.00    +0.000 A 
ENDBRANCH   9  11
ENDBRANCH   4   9
BRANCH   5  17
ATOM     17  O   UNL     1       7.314   0.611  -2.205  0.00  0.00    +0.000 OA
ATOM     18  H   UNL     1       6.387   0.313  -2.382  0.00  0.00    +0.000 HD
ENDBRANCH   5  17
TORSDOF 4
ENDMDL
MODEL 5
REMARK VINA RESULT:      -4.6      3.207      5.517
REMARK  Name = bgox31_5_ligand
REMARK  5 active torsions:
REMARK  status: ('A' for Active; 'I' for Inactive)
REMARK    1  A    between atoms: C_1  and  O_2
REMARK    2  A    between atoms: O_2  and  C_3
REMARK    3  A    between atoms: C_6  and  C_7
REMARK    4  A    between atoms: C_7  and  C_9
REMARK    5  A    between atoms: C_15  and  O_16
REMARK                            x       y       z     vdW  Elec       q    Type
REMARK                         _______ _______ _______ _____ _____    ______ ____
ROOT
ATOM      1  C   UNL     1       8.935   1.698  -2.031  0.00  0.00    +0.000 A 
ATOM      2  C   UNL     1       8.447   0.430  -1.979  0.00  0.00    +0.000 A 
ATOM      3  C   UNL     1       7.286   0.167  -1.221  0.00  0.00    +0.000 A 
ATOM      4  C   UNL     1       6.621   1.144  -0.510  0.00  0.00    +0.000 A 
ATOM      5  C   UNL     1       7.129   2.440  -0.553  0.00  0.00    +0.000 A 
ATOM      6  C   UNL     1       8.298   2.721  -1.313  0.00  0.00    +0.000 A 
ENDROOT
BRANCH   1   8
ATOM      7  C   UNL     1      10.257   1.038  -4.068  0.00  0.00    +0.000 C 
ATOM      8  O   UNL     1      10.126   1.800  -2.835  0.00  0.00    +0.000 OA
ENDBRANCH   1   8
BRANCH   4   9
ATOM      9  C   UNL     1       5.451   0.799   0.261  0.00  0.00    +0.000 C 
ATOM     10  O   UNL     1       4.337   1.106  -0.181  0.00  0.00    +0.000 OA
BRANCH   9  11
ATOM     11  C   UNL     1       5.594   0.182   1.618  0.00  0.00    +0.000 A 
ATOM     12  C   UNL     1       6.756   0.205   2.369  0.00  0.00    +0.000 A 
ATOM     13  C   UNL     1       6.823  -0.405   3.652  0.00  0.00    +0.000 A 
ATOM     14  C   UNL     1       5.748  -1.029   4.210  0.00  0.00    +0.000 A 
ATOM     15  C   UNL     1       4.568  -1.053   3.507  0.00  0.00    +0.000 A 
ATOM     16  C   UNL     1       4.521  -0.474   2.217  0.00  0.00    +0.000 A 
ENDBRANCH   9  11
ENDBRANCH   4   9
BRANCH   5  17
ATOM     17  O   UNL     1       6.496   3.429   0.124  0.00  0.00    +0.000 OA
ATOM     18  H   UNL     1       5.980   4.115  -0.370  0.00  0.00    +0.000 HD
ENDBRANCH   5  17
TORSDOF 4
ENDMDL
MODEL 6
REMARK VINA RESULT:      -4.6      3.089      5.279
REMARK  Name = bgox31_5_ligand
REMARK  5 active torsions:
REMARK  status: ('A' for Active; 'I' for Inactive)
REMARK    1  A    between atoms: C_1  and  O_2
REMARK    2  A    between atoms: O_2  and  C_3
REMARK    3  A    between atoms: C_6  and  C_7
REMARK    4  A    between atoms: C_7  and  C_9
REMARK    5  A    between atoms: C_15  and  O_16
REMARK                            x       y       z     vdW  Elec       q    Type
REMARK                         _______ _______ _______ _____ _____    ______ ____
ROOT
ATOM      1  C   UNL     1       8.314   2.793  -1.399  0.00  0.00    +0.000 A 
ATOM      2  C   UNL     1       7.637   3.369  -0.371  0.00  0.00    +0.000 A 
ATOM      3  C   UNL     1       6.610   2.645   0.272  0.00  0.00    +0.000 A 
ATOM      4  C   UNL     1       6.246   1.369  -0.107  0.00  0.00    +0.000 A 
ATOM      5  C   UNL     1       6.932   0.785  -1.169  0.00  0.00    +0.000 A 
ATOM      6  C   UNL     1       7.969   1.502  -1.826  0.00  0.00    +0.000 A 
ENDROOT
BRANCH   1   8
ATOM      7  C   UNL     1       9.006   4.550  -3.062  0.00  0.00    +0.000 C 
ATOM      8  O   UNL     1       9.321   3.661  -1.953  0.00  0.00    +0.000 OA
ENDBRANCH   1   8
BRANCH   4   9
ATOM      9  C   UNL     1       5.171   0.696   0.582  0.00  0.00    +0.000 C 
ATOM     10  O   UNL     1       4.028   0.769   0.114  0.00  0.00    +0.000 OA
BRANCH   9  11
ATOM     11  C   UNL     1       5.421   0.017   1.893  0.00  0.00    +0.000 A 
ATOM     12  C   UNL     1       4.426  -0.425   2.747  0.00  0.00    +0.000 A 
ATOM     13  C   UNL     1       4.735  -1.059   3.982  0.00  0.00    +0.000 A 
ATOM     14  C   UNL     1       6.020  -1.276   4.379  0.00  0.00    +0.000 A 
ATOM     15  C   UNL     1       7.038  -0.874   3.548  0.00  0.00    +0.000 A 
ATOM     16  C   UNL     1       6.721  -0.212   2.338  0.00  0.00    +0.000 A 
ENDBRANCH   9  11
ENDBRANCH   4   9
BRANCH   5  17
ATOM     17  O   UNL     1       6.610  -0.472  -1.561  0.00  0.00    +0.000 OA
ATOM     18  H   UNL     1       5.661  -0.721  -1.695  0.00  0.00    +0.000 HD
ENDBRANCH   5  17
TORSDOF 4
ENDMDL
MODEL 7
REMARK VINA RESULT:      -4.3      3.174      5.074
REMARK  Name = bgox31_5_ligand
REMARK  5 active torsions:
REMARK  status: ('A' for Active; 'I' for Inactive)
REMARK    1  A    between atoms: C_1  and  O_2
REMARK    2  A    between atoms: O_2  and  C_3
REMARK    3  A    between atoms: C_6  and  C_7
REMARK    4  A    between atoms: C_7  and  C_9
REMARK    5  A    between atoms: C_15  and  O_16
REMARK                            x       y       z     vdW  Elec       q    Type
REMARK                         _______ _______ _______ _____ _____    ______ ____
ROOT
ATOM      1  C   UNL     1       8.100   4.353   0.652  0.00  0.00    +0.000 A 
ATOM      2  C   UNL     1       8.874   3.564   1.444  0.00  0.00    +0.000 A 
ATOM      3  C   UNL     1       8.552   2.197   1.584  0.00  0.00    +0.000 A 
ATOM      4  C   UNL     1       7.467   1.618   0.958  0.00  0.00    +0.000 A 
ATOM      5  C   UNL     1       6.667   2.429   0.157  0.00  0.00    +0.000 A 
ATOM      6  C   UNL     1       6.979   3.808   0.007  0.00  0.00    +0.000 A 
ENDROOT
BRANCH   1   8
ATOM      7  C   UNL     1       8.890   6.418   1.853  0.00  0.00    +0.000 C 
ATOM      8  O   UNL     1       8.553   5.719   0.621  0.00  0.00    +0.000 OA
ENDBRANCH   1   8
BRANCH   4   9
ATOM      9  C   UNL     1       7.185   0.217   1.164  0.00  0.00    +0.000 C 
ATOM     10  O   UNL     1       7.462  -0.583   0.261  0.00  0.00    +0.000 OA
BRANCH   9  11
ATOM     11  C   UNL     1       6.471  -0.237   2.399  0.00  0.00    +0.000 A 
ATOM     12  C   UNL     1       7.092  -0.514   3.604  0.00  0.00    +0.000 A 
ATOM     13  C   UNL     1       6.351  -0.947   4.738  0.00  0.00    +0.000 A 
ATOM     14  C   UNL     1       4.998  -1.097   4.702  0.00  0.00    +0.000 A 
ATOM     15  C   UNL     1       4.340  -0.808   3.530  0.00  0.00    +0.000 A 
ATOM     16  C   UNL     1       5.089  -0.413   2.396  0.00  0.00    +0.000 A 
ENDBRANCH   9  11
ENDBRANCH   4   9
BRANCH   5  17
ATOM     17  O   UNL     1       5.600   1.892  -0.483  0.00  0.00    +0.000 OA
ATOM     18  H   UNL     1       5.682   1.011  -0.927  0.00  0.00    +0.000 HD
ENDBRANCH   5  17
TORSDOF 4
ENDMDL
MODEL 8
REMARK VINA RESULT:      -4.3      2.884      6.882
REMARK  Name = bgox31_5_ligand
REMARK  5 active torsions:
REMARK  status: ('A' for Active; 'I' for Inactive)
REMARK    1  A    between atoms: C_1  and  O_2
REMARK    2  A    between atoms: O_2  and  C_3
REMARK    3  A    between atoms: C_6  and  C_7
REMARK    4  A    between atoms: C_7  and  C_9
REMARK    5  A    between atoms: C_15  and  O_16
REMARK                            x       y       z     vdW  Elec       q    Type
REMARK                         _______ _______ _______ _____ _____    ______ ____
ROOT
ATOM      1  C   UNL     1       5.043  -3.991  10.029  0.00  0.00    +0.000 A 
ATOM      2  C   UNL     1       4.297  -4.078   8.896  0.00  0.00    +0.000 A 
ATOM      3  C   UNL     1       4.381  -3.050   7.932  0.00  0.00    +0.000 A 
ATOM      4  C   UNL     1       5.185  -1.940   8.093  0.00  0.00    +0.000 A 
ATOM      5  C   UNL     1       5.939  -1.846   9.260  0.00  0.00    +0.000 A 
ATOM      6  C   UNL     1       5.864  -2.874  10.240  0.00  0.00    +0.000 A 
ENDROOT
BRANCH   1   8
ATOM      7  C   UNL     1       3.705  -6.005  10.727  0.00  0.00    +0.000 C 
ATOM      8  O   UNL     1       4.838  -5.109  10.913  0.00  0.00    +0.000 OA
ENDBRANCH   1   8
BRANCH   4   9
ATOM      9  C   UNL     1       5.206  -0.917   7.075  0.00  0.00    +0.000 C 
ATOM     10  O   UNL     1       4.848   0.228   7.377  0.00  0.00    +0.000 OA
BRANCH   9  11
ATOM     11  C   UNL     1       5.549  -1.265   5.660  0.00  0.00    +0.000 A 
ATOM     12  C   UNL     1       4.797  -0.894   4.559  0.00  0.00    +0.000 A 
ATOM     13  C   UNL     1       5.180  -1.263   3.240  0.00  0.00    +0.000 A 
ATOM     14  C   UNL     1       6.309  -1.984   2.992  0.00  0.00    +0.000 A 
ATOM     15  C   UNL     1       7.097  -2.351   4.057  0.00  0.00    +0.000 A 
ATOM     16  C   UNL     1       6.689  -2.011   5.368  0.00  0.00    +0.000 A 
ENDBRANCH   9  11
ENDBRANCH   4   9
BRANCH   5  17
ATOM     17  O   UNL     1       6.749  -0.776   9.447  0.00  0.00    +0.000 OA
ATOM     18  H   UNL     1       6.485   0.112   9.098  0.00  0.00    +0.000 HD
ENDBRANCH   5  17
TORSDOF 4
ENDMDL
MODEL 9
REMARK VINA RESULT:      -4.3      3.807      5.577
REMARK  Name = bgox31_5_ligand
REMARK  5 active torsions:
REMARK  status: ('A' for Active; 'I' for Inactive)
REMARK    1  A    between atoms: C_1  and  O_2
REMARK    2  A    between atoms: O_2  and  C_3
REMARK    3  A    between atoms: C_6  and  C_7
REMARK    4  A    between atoms: C_7  and  C_9
REMARK    5  A    between atoms: C_15  and  O_16
REMARK                            x       y       z     vdW  Elec       q    Type
REMARK                         _______ _______ _______ _____ _____    ______ ____
ROOT
ATOM      1  C   UNL     1       8.010   3.301   0.620  0.00  0.00    +0.000 A 
ATOM      2  C   UNL     1       8.321   2.499   1.672  0.00  0.00    +0.000 A 
ATOM      3  C   UNL     1       7.537   1.352   1.921  0.00  0.00    +0.000 A 
ATOM      4  C   UNL     1       6.448   1.008   1.147  0.00  0.00    +0.000 A 
ATOM      5  C   UNL     1       6.123   1.839   0.077  0.00  0.00    +0.000 A 
ATOM      6  C   UNL     1       6.903   2.998  -0.186  0.00  0.00    +0.000 A 
ENDROOT
BRANCH   1   8
ATOM      7  C   UNL     1       8.412   5.782   0.758  0.00  0.00    +0.000 C 
ATOM      8  O   UNL     1       8.895   4.432   0.507  0.00  0.00    +0.000 OA
ENDBRANCH   1   8
BRANCH   4   9
ATOM      9  C   UNL     1       5.679  -0.168   1.473  0.00  0.00    +0.000 C 
ATOM     10  O   UNL     1       4.491  -0.032   1.793  0.00  0.00    +0.000 OA
BRANCH   9  11
ATOM     11  C   UNL     1       6.338  -1.512   1.529  0.00  0.00    +0.000 A 
ATOM     12  C   UNL     1       6.826  -2.190   0.425  0.00  0.00    +0.000 A 
ATOM     13  C   UNL     1       7.438  -3.467   0.550  0.00  0.00    +0.000 A 
ATOM     14  C   UNL     1       7.588  -4.080   1.758  0.00  0.00    +0.000 A 
ATOM     15  C   UNL     1       7.139  -3.428   2.881  0.00  0.00    +0.000 A 
ATOM     16  C   UNL     1       6.499  -2.174   2.743  0.00  0.00    +0.000 A 
ENDBRANCH   9  11
ENDBRANCH   4   9
BRANCH   5  17
ATOM     17  O   UNL     1       5.067   1.527  -0.713  0.00  0.00    +0.000 OA
ATOM     18  H   UNL     1       4.169   1.890  -0.506  0.00  0.00    +0.000 HD
ENDBRANCH   5  17
TORSDOF 4
ENDMDL
