REMARK  Name = s3_esm2_f4_ligand
REMARK  12 active torsions:
REMARK  status: ('A' for Active; 'I' for Inactive)
REMARK    1  A    between atoms: C_1  and  C_2
REMARK    2  A    between atoms: C_2  and  C_3
REMARK    3  A    between atoms: C_3  and  C_4
REMARK    4  A    between atoms: C_4  and  C_5
REMARK    5  A    between atoms: C_5  and  C_6
REMARK    6  A    between atoms: C_5  and  O_8
REMARK    7  A    between atoms: C_6  and  C_7
REMARK    8  A    between atoms: O_8  and  C_9
REMARK    9  A    between atoms: C_9  and  C_11
REMARK   10  A    between atoms: C_12  and  C_13
REMARK   11  A    between atoms: C_16  and  O_17
REMARK   12  A    between atoms: O_17  and  C_18
REMARK                            x       y       z     vdW  Elec       q    Type
REMARK                         _______ _______ _______ _____ _____    ______ ____
ROOT
ATOM      1  C   UNL     1       7.560  -0.148  -3.273  0.00  0.00    +0.000 C 
ATOM      2  O   UNL     1       7.454  -1.241  -2.788  0.00  0.00    +0.000 OA
ENDROOT
BRANCH   1   3
ATOM      3  C   UNL     1       7.095   1.067  -2.611  0.00  0.00    +0.000 C 
ATOM      4  C   UNL     1       7.468   2.266  -3.043  0.00  0.00    +0.000 C 
BRANCH   4   5
ATOM      5  C   UNL     1       6.873   3.529  -2.554  0.00  0.00    +0.000 A 
ATOM      6  C   UNL     1       5.714   3.532  -1.804  0.00  0.00    +0.000 A 
ATOM      7  C   UNL     1       5.163   4.730  -1.389  0.00  0.00    +0.000 A 
ATOM      8  C   UNL     1       5.748   5.918  -1.713  0.00  0.00    +0.000 A 
ATOM      9  C   UNL     1       6.911   5.917  -2.456  0.00  0.00    +0.000 A 
ATOM     10  C   UNL     1       7.464   4.723  -2.870  0.00  0.00    +0.000 A 
BRANCH   8  11
ATOM     11  O   UNL     1       5.174   7.068  -1.298  0.00  0.00    +0.000 OA
ATOM     12  C   UNL     1       5.552   8.300  -1.892  0.00  0.00    +0.000 C 
ENDBRANCH   8  11
ENDBRANCH   4   5
ENDBRANCH   1   3
BRANCH   1  13
ATOM     13  O   UNL     1       8.105   0.041  -4.503  0.00  0.00    +0.000 OA
BRANCH  13  14
ATOM     14  C   UNL     1       8.281  -1.074  -5.357  0.00  0.00    +0.000 C 
BRANCH  14  15
ATOM     15  C   UNL     1       7.738  -0.766  -6.733  0.00  0.00    +0.000 C 
ATOM     16  C   UNL     1       6.763   0.373  -6.776  0.00  0.00    +0.000 C 
ENDBRANCH  14  15
BRANCH  14  17
ATOM     17  C   UNL     1       9.765  -1.399  -5.458  0.00  0.00    +0.000 C 
BRANCH  17  18
ATOM     18  C   UNL     1      10.140  -2.545  -4.561  0.00  0.00    +0.000 C 
BRANCH  18  20
ATOM     19  C   UNL     1      11.874  -4.255  -4.001  0.00  0.00    +0.000 C 
ATOM     20  C   UNL     1      11.528  -3.045  -4.875  0.00  0.00    +0.000 C 
ENDBRANCH  18  20
ENDBRANCH  17  18
ENDBRANCH  14  17
ENDBRANCH  13  14
ENDBRANCH   1  13
TORSDOF 9
