MODEL 1
REMARK VINA RESULT:      -4.9      0.000      0.000
REMARK  Name = s3_esm2_f4_ligand
REMARK  12 active torsions:
REMARK  status: ('A' for Active; 'I' for Inactive)
REMARK    1  A    between atoms: C_1  and  C_2
REMARK    2  A    between atoms: C_2  and  C_3
REMARK    3  A    between atoms: C_3  and  C_4
REMARK    4  A    between atoms: C_4  and  C_5
REMARK    5  A    between atoms: C_5  and  C_6
REMARK    6  A    between atoms: C_5  and  O_8
REMARK    7  A    between atoms: C_6  and  C_7
REMARK    8  A    between atoms: O_8  and  C_9
REMARK    9  A    between atoms: C_9  and  C_11
REMARK   10  A    between atoms: C_12  and  C_13
REMARK   11  A    between atoms: C_16  and  O_17
REMARK   12  A    between atoms: O_17  and  C_18
REMARK                            x       y       z     vdW  Elec       q    Type
REMARK                         _______ _______ _______ _____ _____    ______ ____
ROOT
ATOM      1  C   UNL     1       2.398   8.286   0.225  0.00  0.00    +0.000 C 
ATOM      2  O   UNL     1       3.441   8.850   0.414  0.00  0.00    +0.000 OA
ENDROOT
BRANCH   1   3
ATOM      3  C   UNL     1       2.209   7.286  -0.820  0.00  0.00    +0.000 C 
ATOM      4  C   UNL     1       2.531   7.546  -2.082  0.00  0.00    +0.000 C 
BRANCH   4   5
ATOM      5  C   UNL     1       2.562   6.516  -3.144  0.00  0.00    +0.000 A 
ATOM      6  C   UNL     1       2.107   6.788  -4.419  0.00  0.00    +0.000 A 
ATOM      7  C   UNL     1       2.117   5.797  -5.381  0.00  0.00    +0.000 A 
ATOM      8  C   UNL     1       2.568   4.544  -5.090  0.00  0.00    +0.000 A 
ATOM      9  C   UNL     1       3.030   4.272  -3.818  0.00  0.00    +0.000 A 
ATOM     10  C   UNL     1       3.023   5.260  -2.856  0.00  0.00    +0.000 A 
BRANCH   8  11
ATOM     11  O   UNL     1       2.552   3.598  -6.054  0.00  0.00    +0.000 OA
ATOM     12  C   UNL     1       2.796   3.963  -7.404  0.00  0.00    +0.000 C 
ENDBRANCH   8  11
ENDBRANCH   4   5
ENDBRANCH   1   3
BRANCH   1  13
ATOM     13  O   UNL     1       1.291   8.560   0.965  0.00  0.00    +0.000 OA
BRANCH  13  14
ATOM     14  C   UNL     1       0.768   7.559   1.817  0.00  0.00    +0.000 C 
BRANCH  14  15
ATOM     15  C   UNL     1       0.565   8.114   3.208  0.00  0.00    +0.000 C 
ATOM     16  C   UNL     1       1.831   8.500   3.914  0.00  0.00    +0.000 C 
ENDBRANCH  14  15
BRANCH  14  17
ATOM     17  C   UNL     1      -0.566   7.077   1.264  0.00  0.00    +0.000 C 
BRANCH  17  18
ATOM     18  C   UNL     1      -1.498   6.655   2.365  0.00  0.00    +0.000 C 
BRANCH  18  20
ATOM     19  C   UNL     1      -2.772   4.517   2.137  0.00  0.00    +0.000 C 
ATOM     20  C   UNL     1      -2.742   6.012   1.803  0.00  0.00    +0.000 C 
ENDBRANCH  18  20
ENDBRANCH  17  18
ENDBRANCH  14  17
ENDBRANCH  13  14
ENDBRANCH   1  13
TORSDOF 9
ENDMDL
MODEL 2
REMARK VINA RESULT:      -4.8     10.870     12.407
REMARK  Name = s3_esm2_f4_ligand
REMARK  12 active torsions:
REMARK  status: ('A' for Active; 'I' for Inactive)
REMARK    1  A    between atoms: C_1  and  C_2
REMARK    2  A    between atoms: C_2  and  C_3
REMARK    3  A    between atoms: C_3  and  C_4
REMARK    4  A    between atoms: C_4  and  C_5
REMARK    5  A    between atoms: C_5  and  C_6
REMARK    6  A    between atoms: C_5  and  O_8
REMARK    7  A    between atoms: C_6  and  C_7
REMARK    8  A    between atoms: O_8  and  C_9
REMARK    9  A    between atoms: C_9  and  C_11
REMARK   10  A    between atoms: C_12  and  C_13
REMARK   11  A    between atoms: C_16  and  O_17
REMARK   12  A    between atoms: O_17  and  C_18
REMARK                            x       y       z     vdW  Elec       q    Type
REMARK                         _______ _______ _______ _____ _____    ______ ____
ROOT
ATOM      1  C   UNL     1      -1.804  -3.295   2.529  0.00  0.00    +0.000 C 
ATOM      2  O   UNL     1      -2.159  -3.036   1.411  0.00  0.00    +0.000 OA
ENDROOT
BRANCH   1   3
ATOM      3  C   UNL     1      -0.442  -3.702   2.858  0.00  0.00    +0.000 C 
ATOM      4  C   UNL     1       0.503  -2.799   3.093  0.00  0.00    +0.000 C 
BRANCH   4   5
ATOM      5  C   UNL     1       1.838  -3.139   3.632  0.00  0.00    +0.000 A 
ATOM      6  C   UNL     1       2.214  -2.762   4.906  0.00  0.00    +0.000 A 
ATOM      7  C   UNL     1       3.481  -3.065   5.370  0.00  0.00    +0.000 A 
ATOM      8  C   UNL     1       4.372  -3.733   4.584  0.00  0.00    +0.000 A 
ATOM      9  C   UNL     1       3.996  -4.118   3.314  0.00  0.00    +0.000 A 
ATOM     10  C   UNL     1       2.732  -3.818   2.848  0.00  0.00    +0.000 A 
BRANCH   8  11
ATOM     11  O   UNL     1       5.604  -4.002   5.070  0.00  0.00    +0.000 OA
ATOM     12  C   UNL     1       6.129  -3.223   6.133  0.00  0.00    +0.000 C 
ENDBRANCH   8  11
ENDBRANCH   4   5
ENDBRANCH   1   3
BRANCH   1  13
ATOM     13  O   UNL     1      -2.661  -3.252   3.582  0.00  0.00    +0.000 OA
BRANCH  13  14
ATOM     14  C   UNL     1      -2.137  -3.249   4.897  0.00  0.00    +0.000 C 
BRANCH  14  15
ATOM     15  C   UNL     1      -2.367  -1.904   5.545  0.00  0.00    +0.000 C 
ATOM     16  C   UNL     1      -1.128  -1.257   6.090  0.00  0.00    +0.000 C 
ENDBRANCH  14  15
BRANCH  14  17
ATOM     17  C   UNL     1      -2.829  -4.331   5.715  0.00  0.00    +0.000 C 
BRANCH  17  18
ATOM     18  C   UNL     1      -1.910  -5.490   5.983  0.00  0.00    +0.000 C 
BRANCH  18  20
ATOM     19  C   UNL     1       0.511  -6.001   5.633  0.00  0.00    +0.000 C 
ATOM     20  C   UNL     1      -0.500  -5.016   6.230  0.00  0.00    +0.000 C 
ENDBRANCH  18  20
ENDBRANCH  17  18
ENDBRANCH  14  17
ENDBRANCH  13  14
ENDBRANCH   1  13
TORSDOF 9
ENDMDL
MODEL 3
REMARK VINA RESULT:      -4.7      2.942      4.671
REMARK  Name = s3_esm2_f4_ligand
REMARK  12 active torsions:
REMARK  status: ('A' for Active; 'I' for Inactive)
REMARK    1  A    between atoms: C_1  and  C_2
REMARK    2  A    between atoms: C_2  and  C_3
REMARK    3  A    between atoms: C_3  and  C_4
REMARK    4  A    between atoms: C_4  and  C_5
REMARK    5  A    between atoms: C_5  and  C_6
REMARK    6  A    between atoms: C_5  and  O_8
REMARK    7  A    between atoms: C_6  and  C_7
REMARK    8  A    between atoms: O_8  and  C_9
REMARK    9  A    between atoms: C_9  and  C_11
REMARK   10  A    between atoms: C_12  and  C_13
REMARK   11  A    between atoms: C_16  and  O_17
REMARK   12  A    between atoms: O_17  and  C_18
REMARK                            x       y       z     vdW  Elec       q    Type
REMARK                         _______ _______ _______ _____ _____    ______ ____
ROOT
ATOM      1  C   UNL     1      -1.139   6.944   1.695  0.00  0.00    +0.000 C 
ATOM      2  O   UNL     1      -1.869   6.025   1.442  0.00  0.00    +0.000 OA
ENDROOT
BRANCH   1   3
ATOM      3  C   UNL     1      -0.175   7.484   0.741  0.00  0.00    +0.000 C 
ATOM      4  C   UNL     1       1.130   7.319   0.919  0.00  0.00    +0.000 C 
BRANCH   4   5
ATOM      5  C   UNL     1       2.141   7.655  -0.107  0.00  0.00    +0.000 A 
ATOM      6  C   UNL     1       3.097   8.626   0.120  0.00  0.00    +0.000 A 
ATOM      7  C   UNL     1       4.008   8.942  -0.870  0.00  0.00    +0.000 A 
ATOM      8  C   UNL     1       3.977   8.309  -2.077  0.00  0.00    +0.000 A 
ATOM      9  C   UNL     1       3.028   7.333  -2.303  0.00  0.00    +0.000 A 
ATOM     10  C   UNL     1       2.118   7.014  -1.316  0.00  0.00    +0.000 A 
BRANCH   8  11
ATOM     11  O   UNL     1       4.878   8.652  -3.023  0.00  0.00    +0.000 OA
ATOM     12  C   UNL     1       5.764   7.673  -3.543  0.00  0.00    +0.000 C 
ENDBRANCH   8  11
ENDBRANCH   4   5
ENDBRANCH   1   3
BRANCH   1  13
ATOM     13  O   UNL     1      -1.135   7.542   2.915  0.00  0.00    +0.000 OA
BRANCH  13  14
ATOM     14  C   UNL     1      -1.529   8.898   3.018  0.00  0.00    +0.000 C 
BRANCH  14  15
ATOM     15  C   UNL     1      -2.904   8.994   3.638  0.00  0.00    +0.000 C 
ATOM     16  C   UNL     1      -3.026  10.023   4.723  0.00  0.00    +0.000 C 
ENDBRANCH  14  15
BRANCH  14  17
ATOM     17  C   UNL     1      -0.527   9.646   3.887  0.00  0.00    +0.000 C 
BRANCH  17  18
ATOM     18  C   UNL     1       0.527  10.321   3.056  0.00  0.00    +0.000 C 
BRANCH  18  20
ATOM     19  C   UNL     1       1.862   8.623   4.311  0.00  0.00    +0.000 C 
ATOM     20  C   UNL     1       1.910   9.931   3.514  0.00  0.00    +0.000 C 
ENDBRANCH  18  20
ENDBRANCH  17  18
ENDBRANCH  14  17
ENDBRANCH  13  14
ENDBRANCH   1  13
TORSDOF 9
ENDMDL
MODEL 4
REMARK VINA RESULT:      -4.7      0.960      2.993
REMARK  Name = s3_esm2_f4_ligand
REMARK  12 active torsions:
REMARK  status: ('A' for Active; 'I' for Inactive)
REMARK    1  A    between atoms: C_1  and  C_2
REMARK    2  A    between atoms: C_2  and  C_3
REMARK    3  A    between atoms: C_3  and  C_4
REMARK    4  A    between atoms: C_4  and  C_5
REMARK    5  A    between atoms: C_5  and  C_6
REMARK    6  A    between atoms: C_5  and  O_8
REMARK    7  A    between atoms: C_6  and  C_7
REMARK    8  A    between atoms: O_8  and  C_9
REMARK    9  A    between atoms: C_9  and  C_11
REMARK   10  A    between atoms: C_12  and  C_13
REMARK   11  A    between atoms: C_16  and  O_17
REMARK   12  A    between atoms: O_17  and  C_18
REMARK                            x       y       z     vdW  Elec       q    Type
REMARK                         _______ _______ _______ _____ _____    ______ ____
ROOT
ATOM      1  C   UNL     1       2.243   7.800   0.078  0.00  0.00    +0.000 C 
ATOM      2  O   UNL     1       3.031   8.679   0.298  0.00  0.00    +0.000 OA
ENDROOT
BRANCH   1   3
ATOM      3  C   UNL     1       1.991   7.271  -1.259  0.00  0.00    +0.000 C 
ATOM      4  C   UNL     1       2.992   6.877  -2.038  0.00  0.00    +0.000 C 
BRANCH   4   5
ATOM      5  C   UNL     1       2.796   6.145  -3.308  0.00  0.00    +0.000 A 
ATOM      6  C   UNL     1       3.184   4.827  -3.443  0.00  0.00    +0.000 A 
ATOM      7  C   UNL     1       3.018   4.178  -4.652  0.00  0.00    +0.000 A 
ATOM      8  C   UNL     1       2.476   4.824  -5.724  0.00  0.00    +0.000 A 
ATOM      9  C   UNL     1       2.079   6.139  -5.589  0.00  0.00    +0.000 A 
ATOM     10  C   UNL     1       2.242   6.788  -4.383  0.00  0.00    +0.000 A 
BRANCH   8  11
ATOM     11  O   UNL     1       2.339   4.159  -6.892  0.00  0.00    +0.000 OA
ATOM     12  C   UNL     1       2.855   2.844  -7.019  0.00  0.00    +0.000 C 
ENDBRANCH   8  11
ENDBRANCH   4   5
ENDBRANCH   1   3
BRANCH   1  13
ATOM     13  O   UNL     1       1.497   7.241   1.066  0.00  0.00    +0.000 OA
BRANCH  13  14
ATOM     14  C   UNL     1       0.463   8.001   1.663  0.00  0.00    +0.000 C 
BRANCH  14  15
ATOM     15  C   UNL     1      -0.884   7.519   1.177  0.00  0.00    +0.000 C 
ATOM     16  C   UNL     1      -1.564   6.547   2.095  0.00  0.00    +0.000 C 
ENDBRANCH  14  15
BRANCH  14  17
ATOM     17  C   UNL     1       0.541   7.853   3.176  0.00  0.00    +0.000 C 
BRANCH  17  18
ATOM     18  C   UNL     1       1.676   8.653   3.751  0.00  0.00    +0.000 C 
BRANCH  18  20
ATOM     19  C   UNL     1       2.032  10.994   2.953  0.00  0.00    +0.000 C 
ATOM     20  C   UNL     1       1.278  10.096   3.939  0.00  0.00    +0.000 C 
ENDBRANCH  18  20
ENDBRANCH  17  18
ENDBRANCH  14  17
ENDBRANCH  13  14
ENDBRANCH   1  13
TORSDOF 9
ENDMDL
MODEL 5
REMARK VINA RESULT:      -4.6      3.827      6.025
REMARK  Name = s3_esm2_f4_ligand
REMARK  12 active torsions:
REMARK  status: ('A' for Active; 'I' for Inactive)
REMARK    1  A    between atoms: C_1  and  C_2
REMARK    2  A    between atoms: C_2  and  C_3
REMARK    3  A    between atoms: C_3  and  C_4
REMARK    4  A    between atoms: C_4  and  C_5
REMARK    5  A    between atoms: C_5  and  C_6
REMARK    6  A    between atoms: C_5  and  O_8
REMARK    7  A    between atoms: C_6  and  C_7
REMARK    8  A    between atoms: O_8  and  C_9
REMARK    9  A    between atoms: C_9  and  C_11
REMARK   10  A    between atoms: C_12  and  C_13
REMARK   11  A    between atoms: C_16  and  O_17
REMARK   12  A    between atoms: O_17  and  C_18
REMARK                            x       y       z     vdW  Elec       q    Type
REMARK                         _______ _______ _______ _____ _____    ______ ____
ROOT
ATOM      1  C   UNL     1       0.478   7.781  -0.186  0.00  0.00    +0.000 C 
ATOM      2  O   UNL     1      -0.202   8.165  -1.098  0.00  0.00    +0.000 OA
ENDROOT
BRANCH   1   3
ATOM      3  C   UNL     1       1.934   7.882  -0.179  0.00  0.00    +0.000 C 
ATOM      4  C   UNL     1       2.537   9.063  -0.109  0.00  0.00    +0.000 C 
BRANCH   4   5
ATOM      5  C   UNL     1       3.990   9.224   0.112  0.00  0.00    +0.000 A 
ATOM      6  C   UNL     1       4.482   9.744   1.293  0.00  0.00    +0.000 A 
ATOM      7  C   UNL     1       5.844   9.914   1.458  0.00  0.00    +0.000 A 
ATOM      8  C   UNL     1       6.716   9.576   0.466  0.00  0.00    +0.000 A 
ATOM      9  C   UNL     1       6.227   9.048  -0.712  0.00  0.00    +0.000 A 
ATOM     10  C   UNL     1       4.869   8.877  -0.879  0.00  0.00    +0.000 A 
BRANCH   8  11
ATOM     11  O   UNL     1       8.039   9.766   0.661  0.00  0.00    +0.000 OA
ATOM     12  C   UNL     1       8.556   9.832   1.981  0.00  0.00    +0.000 C 
ENDBRANCH   8  11
ENDBRANCH   4   5
ENDBRANCH   1   3
BRANCH   1  13
ATOM     13  O   UNL     1      -0.062   7.190   0.911  0.00  0.00    +0.000 OA
BRANCH  13  14
ATOM     14  C   UNL     1      -0.939   7.937   1.734  0.00  0.00    +0.000 C 
BRANCH  14  15
ATOM     15  C   UNL     1      -1.757   7.008   2.601  0.00  0.00    +0.000 C 
ATOM     16  C   UNL     1      -2.203   5.751   1.916  0.00  0.00    +0.000 C 
ENDBRANCH  14  15
BRANCH  14  17
ATOM     17  C   UNL     1      -0.123   8.870   2.619  0.00  0.00    +0.000 C 
BRANCH  17  18
ATOM     18  C   UNL     1       0.871   8.110   3.452  0.00  0.00    +0.000 C 
BRANCH  18  20
ATOM     19  C   UNL     1       1.681  10.472   3.556  0.00  0.00    +0.000 C 
ATOM     20  C   UNL     1       1.974   9.016   3.936  0.00  0.00    +0.000 C 
ENDBRANCH  18  20
ENDBRANCH  17  18
ENDBRANCH  14  17
ENDBRANCH  13  14
ENDBRANCH   1  13
TORSDOF 9
ENDMDL
MODEL 6
REMARK VINA RESULT:      -4.6     11.221     12.760
REMARK  Name = s3_esm2_f4_ligand
REMARK  12 active torsions:
REMARK  status: ('A' for Active; 'I' for Inactive)
REMARK    1  A    between atoms: C_1  and  C_2
REMARK    2  A    between atoms: C_2  and  C_3
REMARK    3  A    between atoms: C_3  and  C_4
REMARK    4  A    between atoms: C_4  and  C_5
REMARK    5  A    between atoms: C_5  and  C_6
REMARK    6  A    between atoms: C_5  and  O_8
REMARK    7  A    between atoms: C_6  and  C_7
REMARK    8  A    between atoms: O_8  and  C_9
REMARK    9  A    between atoms: C_9  and  C_11
REMARK   10  A    between atoms: C_12  and  C_13
REMARK   11  A    between atoms: C_16  and  O_17
REMARK   12  A    between atoms: O_17  and  C_18
REMARK                            x       y       z     vdW  Elec       q    Type
REMARK                         _______ _______ _______ _____ _____    ______ ____
ROOT
ATOM      1  C   UNL     1      -0.771  -5.293   2.643  0.00  0.00    +0.000 C 
ATOM      2  O   UNL     1      -0.954  -5.853   1.597  0.00  0.00    +0.000 OA
ENDROOT
BRANCH   1   3
ATOM      3  C   UNL     1       0.539  -5.195   3.278  0.00  0.00    +0.000 C 
ATOM      4  C   UNL     1       1.328  -4.150   3.059  0.00  0.00    +0.000 C 
BRANCH   4   5
ATOM      5  C   UNL     1       2.566  -3.889   3.826  0.00  0.00    +0.000 A 
ATOM      6  C   UNL     1       3.762  -4.486   3.480  0.00  0.00    +0.000 A 
ATOM      7  C   UNL     1       4.896  -4.250   4.235  0.00  0.00    +0.000 A 
ATOM      8  C   UNL     1       4.851  -3.433   5.326  0.00  0.00    +0.000 A 
ATOM      9  C   UNL     1       3.659  -2.829   5.668  0.00  0.00    +0.000 A 
ATOM     10  C   UNL     1       2.526  -3.061   4.915  0.00  0.00    +0.000 A 
BRANCH   8  11
ATOM     11  O   UNL     1       5.977  -3.235   6.045  0.00  0.00    +0.000 OA
ATOM     12  C   UNL     1       5.994  -2.261   7.076  0.00  0.00    +0.000 C 
ENDBRANCH   8  11
ENDBRANCH   4   5
ENDBRANCH   1   3
BRANCH   1  13
ATOM     13  O   UNL     1      -1.790  -4.722   3.338  0.00  0.00    +0.000 OA
BRANCH  13  14
ATOM     14  C   UNL     1      -2.134  -3.375   3.074  0.00  0.00    +0.000 C 
BRANCH  14  15
ATOM     15  C   UNL     1      -3.384  -3.313   2.228  0.00  0.00    +0.000 C 
ATOM     16  C   UNL     1      -3.132  -3.190   0.754  0.00  0.00    +0.000 C 
ENDBRANCH  14  15
BRANCH  14  17
ATOM     17  C   UNL     1      -2.376  -2.652   4.392  0.00  0.00    +0.000 C 
BRANCH  17  18
ATOM     18  C   UNL     1      -1.966  -3.495   5.566  0.00  0.00    +0.000 C 
BRANCH  18  20
ATOM     19  C   UNL     1      -0.663  -1.396   5.945  0.00  0.00    +0.000 C 
ATOM     20  C   UNL     1      -0.786  -2.885   6.282  0.00  0.00    +0.000 C 
ENDBRANCH  18  20
ENDBRANCH  17  18
ENDBRANCH  14  17
ENDBRANCH  13  14
ENDBRANCH   1  13
TORSDOF 9
ENDMDL
MODEL 7
REMARK VINA RESULT:      -4.6      1.230      1.636
REMARK  Name = s3_esm2_f4_ligand
REMARK  12 active torsions:
REMARK  status: ('A' for Active; 'I' for Inactive)
REMARK    1  A    between atoms: C_1  and  C_2
REMARK    2  A    between atoms: C_2  and  C_3
REMARK    3  A    between atoms: C_3  and  C_4
REMARK    4  A    between atoms: C_4  and  C_5
REMARK    5  A    between atoms: C_5  and  C_6
REMARK    6  A    between atoms: C_5  and  O_8
REMARK    7  A    between atoms: C_6  and  C_7
REMARK    8  A    between atoms: O_8  and  C_9
REMARK    9  A    between atoms: C_9  and  C_11
REMARK   10  A    between atoms: C_12  and  C_13
REMARK   11  A    between atoms: C_16  and  O_17
REMARK   12  A    between atoms: O_17  and  C_18
REMARK                            x       y       z     vdW  Elec       q    Type
REMARK                         _______ _______ _______ _____ _____    ______ ____
ROOT
ATOM      1  C   UNL     1       2.480   8.890   0.965  0.00  0.00    +0.000 C 
ATOM      2  O   UNL     1       3.417   9.609   1.182  0.00  0.00    +0.000 OA
ENDROOT
BRANCH   1   3
ATOM      3  C   UNL     1       2.468   7.895  -0.103  0.00  0.00    +0.000 C 
ATOM      4  C   UNL     1       2.251   8.249  -1.364  0.00  0.00    +0.000 C 
BRANCH   4   5
ATOM      5  C   UNL     1       2.432   7.332  -2.510  0.00  0.00    +0.000 A 
ATOM      6  C   UNL     1       2.067   7.702  -3.789  0.00  0.00    +0.000 A 
ATOM      7  C   UNL     1       2.217   6.811  -4.835  0.00  0.00    +0.000 A 
ATOM      8  C   UNL     1       2.720   5.561  -4.623  0.00  0.00    +0.000 A 
ATOM      9  C   UNL     1       3.092   5.192  -3.346  0.00  0.00    +0.000 A 
ATOM     10  C   UNL     1       2.945   6.080  -2.301  0.00  0.00    +0.000 A 
BRANCH   8  11
ATOM     11  O   UNL     1       2.841   4.715  -5.668  0.00  0.00    +0.000 OA
ATOM     12  C   UNL     1       2.521   3.342  -5.506  0.00  0.00    +0.000 C 
ENDBRANCH   8  11
ENDBRANCH   4   5
ENDBRANCH   1   3
BRANCH   1  13
ATOM     13  O   UNL     1       1.335   8.967   1.691  0.00  0.00    +0.000 OA
BRANCH  13  14
ATOM     14  C   UNL     1       1.049   7.953   2.637  0.00  0.00    +0.000 C 
BRANCH  14  15
ATOM     15  C   UNL     1       1.496   8.386   4.014  0.00  0.00    +0.000 C 
ATOM     16  C   UNL     1       1.050   9.763   4.408  0.00  0.00    +0.000 C 
ENDBRANCH  14  15
BRANCH  14  17
ATOM     17  C   UNL     1      -0.450   7.687   2.649  0.00  0.00    +0.000 C 
BRANCH  17  18
ATOM     18  C   UNL     1      -0.864   6.818   1.496  0.00  0.00    +0.000 C 
BRANCH  18  20
ATOM     19  C   UNL     1      -1.275   8.347  -0.437  0.00  0.00    +0.000 C 
ATOM     20  C   UNL     1      -1.921   7.496   0.661  0.00  0.00    +0.000 C 
ENDBRANCH  18  20
ENDBRANCH  17  18
ENDBRANCH  14  17
ENDBRANCH  13  14
ENDBRANCH   1  13
TORSDOF 9
ENDMDL
MODEL 8
REMARK VINA RESULT:      -4.5      2.988      8.059
REMARK  Name = s3_esm2_f4_ligand
REMARK  12 active torsions:
REMARK  status: ('A' for Active; 'I' for Inactive)
REMARK    1  A    between atoms: C_1  and  C_2
REMARK    2  A    between atoms: C_2  and  C_3
REMARK    3  A    between atoms: C_3  and  C_4
REMARK    4  A    between atoms: C_4  and  C_5
REMARK    5  A    between atoms: C_5  and  C_6
REMARK    6  A    between atoms: C_5  and  O_8
REMARK    7  A    between atoms: C_6  and  C_7
REMARK    8  A    between atoms: O_8  and  C_9
REMARK    9  A    between atoms: C_9  and  C_11
REMARK   10  A    between atoms: C_12  and  C_13
REMARK   11  A    between atoms: C_16  and  O_17
REMARK   12  A    between atoms: O_17  and  C_18
REMARK                            x       y       z     vdW  Elec       q    Type
REMARK                         _______ _______ _______ _____ _____    ______ ____
ROOT
ATOM      1  C   UNL     1       4.300   9.710   0.332  0.00  0.00    +0.000 C 
ATOM      2  O   UNL     1       5.099  10.530  -0.030  0.00  0.00    +0.000 OA
ENDROOT
BRANCH   1   3
ATOM      3  C   UNL     1       3.626   9.768   1.625  0.00  0.00    +0.000 C 
ATOM      4  C   UNL     1       2.684  10.673   1.865  0.00  0.00    +0.000 C 
BRANCH   4   5
ATOM      5  C   UNL     1       1.824  10.653   3.068  0.00  0.00    +0.000 A 
ATOM      6  C   UNL     1       1.127  11.775   3.469  0.00  0.00    +0.000 A 
ATOM      7  C   UNL     1       0.357  11.737   4.617  0.00  0.00    +0.000 A 
ATOM      8  C   UNL     1       0.276  10.601   5.366  0.00  0.00    +0.000 A 
ATOM      9  C   UNL     1       0.965   9.475   4.962  0.00  0.00    +0.000 A 
ATOM     10  C   UNL     1       1.733   9.510   3.817  0.00  0.00    +0.000 A 
BRANCH   8  11
ATOM     11  O   UNL     1      -0.479  10.605   6.486  0.00  0.00    +0.000 OA
ATOM     12  C   UNL     1      -1.794  11.137   6.450  0.00  0.00    +0.000 C 
ENDBRANCH   8  11
ENDBRANCH   4   5
ENDBRANCH   1   3
BRANCH   1  13
ATOM     13  O   UNL     1       3.977   8.637  -0.436  0.00  0.00    +0.000 OA
BRANCH  13  14
ATOM     14  C   UNL     1       2.640   8.482  -0.876  0.00  0.00    +0.000 C 
BRANCH  14  15
ATOM     15  C   UNL     1       2.572   8.588  -2.382  0.00  0.00    +0.000 C 
ATOM     16  C   UNL     1       2.441   7.274  -3.092  0.00  0.00    +0.000 C 
ENDBRANCH  14  15
BRANCH  14  17
ATOM     17  C   UNL     1       2.123   7.118  -0.440  0.00  0.00    +0.000 C 
BRANCH  17  18
ATOM     18  C   UNL     1       1.324   7.212   0.830  0.00  0.00    +0.000 C 
BRANCH  18  20
ATOM     19  C   UNL     1      -0.648   8.700   1.206  0.00  0.00    +0.000 C 
ATOM     20  C   UNL     1      -0.140   7.421   0.533  0.00  0.00    +0.000 C 
ENDBRANCH  18  20
ENDBRANCH  17  18
ENDBRANCH  14  17
ENDBRANCH  13  14
ENDBRANCH   1  13
TORSDOF 9
ENDMDL
MODEL 9
REMARK VINA RESULT:      -4.4     10.279     13.149
REMARK  Name = s3_esm2_f4_ligand
REMARK  12 active torsions:
REMARK  status: ('A' for Active; 'I' for Inactive)
REMARK    1  A    between atoms: C_1  and  C_2
REMARK    2  A    between atoms: C_2  and  C_3
REMARK    3  A    between atoms: C_3  and  C_4
REMARK    4  A    between atoms: C_4  and  C_5
REMARK    5  A    between atoms: C_5  and  C_6
REMARK    6  A    between atoms: C_5  and  O_8
REMARK    7  A    between atoms: C_6  and  C_7
REMARK    8  A    between atoms: O_8  and  C_9
REMARK    9  A    between atoms: C_9  and  C_11
REMARK   10  A    between atoms: C_12  and  C_13
REMARK   11  A    between atoms: C_16  and  O_17
REMARK   12  A    between atoms: O_17  and  C_18
REMARK                            x       y       z     vdW  Elec       q    Type
REMARK                         _______ _______ _______ _____ _____    ______ ____
ROOT
ATOM      1  C   UNL     1       5.284  -4.649   2.505  0.00  0.00    +0.000 C 
ATOM      2  O   UNL     1       6.371  -4.871   2.965  0.00  0.00    +0.000 OA
ENDROOT
BRANCH   1   3
ATOM      3  C   UNL     1       4.167  -4.152   3.301  0.00  0.00    +0.000 C 
ATOM      4  C   UNL     1       3.152  -3.513   2.731  0.00  0.00    +0.000 C 
BRANCH   4   5
ATOM      5  C   UNL     1       1.901  -3.172   3.443  0.00  0.00    +0.000 A 
ATOM      6  C   UNL     1       1.924  -2.536   4.668  0.00  0.00    +0.000 A 
ATOM      7  C   UNL     1       0.740  -2.260   5.325  0.00  0.00    +0.000 A 
ATOM      8  C   UNL     1      -0.460  -2.611   4.782  0.00  0.00    +0.000 A 
ATOM      9  C   UNL     1      -0.486  -3.240   3.553  0.00  0.00    +0.000 A 
ATOM     10  C   UNL     1       0.694  -3.515   2.894  0.00  0.00    +0.000 A 
BRANCH   8  11
ATOM     11  O   UNL     1      -1.595  -2.333   5.459  0.00  0.00    +0.000 OA
ATOM     12  C   UNL     1      -2.855  -2.612   4.869  0.00  0.00    +0.000 C 
ENDBRANCH   8  11
ENDBRANCH   4   5
ENDBRANCH   1   3
BRANCH   1  13
ATOM     13  O   UNL     1       5.002  -4.871   1.194  0.00  0.00    +0.000 OA
BRANCH  13  14
ATOM     14  C   UNL     1       5.762  -4.204   0.204  0.00  0.00    +0.000 C 
BRANCH  14  15
ATOM     15  C   UNL     1       6.392  -5.209  -0.732  0.00  0.00    +0.000 C 
ATOM     16  C   UNL     1       5.934  -6.622  -0.527  0.00  0.00    +0.000 C 
ENDBRANCH  14  15
BRANCH  14  17
ATOM     17  C   UNL     1       4.850  -3.276  -0.587  0.00  0.00    +0.000 C 
BRANCH  17  18
ATOM     18  C   UNL     1       5.184  -3.293  -2.053  0.00  0.00    +0.000 C 
BRANCH  18  20
ATOM     19  C   UNL     1       4.062  -4.802  -3.698  0.00  0.00    +0.000 C 
ATOM     20  C   UNL     1       3.945  -3.508  -2.886  0.00  0.00    +0.000 C 
ENDBRANCH  18  20
ENDBRANCH  17  18
ENDBRANCH  14  17
ENDBRANCH  13  14
ENDBRANCH   1  13
TORSDOF 9
ENDMDL
