REMARK  Name = bg33_2_ligand
REMARK  12 active torsions:
REMARK  status: ('A' for Active; 'I' for Inactive)
REMARK    1  A    between atoms: C_1  and  C_2
REMARK    2  A    between atoms: C_2  and  C_3
REMARK    3  A    between atoms: C_3  and  C_4
REMARK    4  A    between atoms: C_4  and  C_5
REMARK    5  A    between atoms: C_5  and  C_6
REMARK    6  A    between atoms: C_5  and  O_8
REMARK    7  A    between atoms: C_6  and  C_7
REMARK    8  A    between atoms: O_8  and  C_9
REMARK    9  A    between atoms: C_9  and  C_11
REMARK   10  A    between atoms: C_12  and  C_13
REMARK   11  A    between atoms: C_16  and  O_17
REMARK   12  A    between atoms: O_17  and  C_18
REMARK                            x       y       z     vdW  Elec       q    Type
REMARK                         _______ _______ _______ _____ _____    ______ ____
ROOT
ATOM      1  C   UNL     1      -3.557  -4.931  11.764  0.00  0.00    +0.000 C 
ATOM      2  O   UNL     1      -4.339  -5.667  12.324  0.00  0.00    +0.000 OA
ENDROOT
BRANCH   1   3
ATOM      3  C   UNL     1      -3.616  -4.799  10.271  0.00  0.00    +0.000 C 
ATOM      4  C   UNL     1      -2.964  -3.829   9.554  0.00  0.00    +0.000 C 
BRANCH   4   5
ATOM      5  C   UNL     1      -2.967  -3.868   8.045  0.00  0.00    +0.000 A 
ATOM      6  C   UNL     1      -3.362  -5.010   7.376  0.00  0.00    +0.000 A 
ATOM      7  C   UNL     1      -3.325  -5.003   5.985  0.00  0.00    +0.000 A 
ATOM      8  C   UNL     1      -2.909  -3.905   5.244  0.00  0.00    +0.000 A 
ATOM      9  C   UNL     1      -2.501  -2.793   5.941  0.00  0.00    +0.000 A 
ATOM     10  C   UNL     1      -2.533  -2.762   7.342  0.00  0.00    +0.000 A 
BRANCH   8  11
ATOM     11  O   UNL     1      -2.853  -3.946   3.855  0.00  0.00    +0.000 OA
ATOM     12  C   UNL     1      -4.046  -4.408   3.207  0.00  0.00    +0.000 C 
ENDBRANCH   8  11
ENDBRANCH   4   5
ENDBRANCH   1   3
BRANCH   1  13
ATOM     13  O   UNL     1      -2.566  -4.263  12.540  0.00  0.00    +0.000 OA
BRANCH  13  14
ATOM     14  C   UNL     1      -2.515  -4.535  13.977  0.00  0.00    +0.000 C 
BRANCH  14  15
ATOM     15  C   UNL     1      -1.770  -3.483  14.775  0.00  0.00    +0.000 C 
ATOM     16  C   UNL     1      -2.259  -3.489  16.276  0.00  0.00    +0.000 C 
ENDBRANCH  14  15
BRANCH  14  17
ATOM     17  C   UNL     1      -1.881  -5.870  14.246  0.00  0.00    +0.000 C 
BRANCH  17  18
ATOM     18  C   UNL     1      -0.391  -5.866  13.865  0.00  0.00    +0.000 C 
BRANCH  18  20
ATOM     19  C   UNL     1       1.819  -7.021  13.952  0.00  0.00    +0.000 C 
ATOM     20  C   UNL     1       0.331  -7.102  14.336  0.00  0.00    +0.000 C 
ENDBRANCH  18  20
ENDBRANCH  17  18
ENDBRANCH  14  17
ENDBRANCH  13  14
ENDBRANCH   1  13
TORSDOF 9
