MODEL 1
REMARK VINA RESULT:      -2.9      0.000      0.000
REMARK  Name = bg33_2_ligand
REMARK  12 active torsions:
REMARK  status: ('A' for Active; 'I' for Inactive)
REMARK    1  A    between atoms: C_1  and  C_2
REMARK    2  A    between atoms: C_2  and  C_3
REMARK    3  A    between atoms: C_3  and  C_4
REMARK    4  A    between atoms: C_4  and  C_5
REMARK    5  A    between atoms: C_5  and  C_6
REMARK    6  A    between atoms: C_5  and  O_8
REMARK    7  A    between atoms: C_6  and  C_7
REMARK    8  A    between atoms: O_8  and  C_9
REMARK    9  A    between atoms: C_9  and  C_11
REMARK   10  A    between atoms: C_12  and  C_13
REMARK   11  A    between atoms: C_16  and  O_17
REMARK   12  A    between atoms: O_17  and  C_18
REMARK                            x       y       z     vdW  Elec       q    Type
REMARK                         _______ _______ _______ _____ _____    ______ ____
ROOT
ATOM      1  C   UNL     1       3.403   0.491  13.066  0.00  0.00    +0.000 C 
ATOM      2  O   UNL     1       3.590  -0.656  13.408  0.00  0.00    +0.000 OA
ENDROOT
BRANCH   1   3
ATOM      3  C   UNL     1       3.010   1.507  14.098  0.00  0.00    +0.000 C 
ATOM      4  C   UNL     1       3.776   1.843  15.183  0.00  0.00    +0.000 C 
BRANCH   4   5
ATOM      5  C   UNL     1       3.361   2.981  16.084  0.00  0.00    +0.000 A 
ATOM      6  C   UNL     1       2.452   3.924  15.645  0.00  0.00    +0.000 A 
ATOM      7  C   UNL     1       2.120   4.967  16.504  0.00  0.00    +0.000 A 
ATOM      8  C   UNL     1       2.660   5.102  17.776  0.00  0.00    +0.000 A 
ATOM      9  C   UNL     1       3.579   4.159  18.173  0.00  0.00    +0.000 A 
ATOM     10  C   UNL     1       3.931   3.091  17.336  0.00  0.00    +0.000 A 
BRANCH   8  11
ATOM     11  O   UNL     1       2.330   6.176  18.594  0.00  0.00    +0.000 OA
ATOM     12  C   UNL     1       0.989   6.169  19.104  0.00  0.00    +0.000 C 
ENDBRANCH   8  11
ENDBRANCH   4   5
ENDBRANCH   1   3
BRANCH   1  13
ATOM     13  O   UNL     1       3.502   0.821  11.684  0.00  0.00    +0.000 OA
BRANCH  13  14
ATOM     14  C   UNL     1       4.726   1.474  11.216  0.00  0.00    +0.000 C 
BRANCH  14  15
ATOM     15  C   UNL     1       5.961   1.107  12.015  0.00  0.00    +0.000 C 
ATOM     16  C   UNL     1       6.711  -0.104  11.334  0.00  0.00    +0.000 C 
ENDBRANCH  14  15
BRANCH  14  17
ATOM     17  C   UNL     1       4.576   2.968  11.236  0.00  0.00    +0.000 C 
BRANCH  17  18
ATOM     18  C   UNL     1       5.505   3.607  12.282  0.00  0.00    +0.000 C 
BRANCH  18  20
ATOM     19  C   UNL     1       5.692   5.176  14.213  0.00  0.00    +0.000 C 
ATOM     20  C   UNL     1       4.880   4.798  12.962  0.00  0.00    +0.000 C 
ENDBRANCH  18  20
ENDBRANCH  17  18
ENDBRANCH  14  17
ENDBRANCH  13  14
ENDBRANCH   1  13
TORSDOF 9
ENDMDL
MODEL 2
REMARK VINA RESULT:      -2.8      1.485      7.248
REMARK  Name = bg33_2_ligand
REMARK  12 active torsions:
REMARK  status: ('A' for Active; 'I' for Inactive)
REMARK    1  A    between atoms: C_1  and  C_2
REMARK    2  A    between atoms: C_2  and  C_3
REMARK    3  A    between atoms: C_3  and  C_4
REMARK    4  A    between atoms: C_4  and  C_5
REMARK    5  A    between atoms: C_5  and  C_6
REMARK    6  A    between atoms: C_5  and  O_8
REMARK    7  A    between atoms: C_6  and  C_7
REMARK    8  A    between atoms: O_8  and  C_9
REMARK    9  A    between atoms: C_9  and  C_11
REMARK   10  A    between atoms: C_12  and  C_13
REMARK   11  A    between atoms: C_16  and  O_17
REMARK   12  A    between atoms: O_17  and  C_18
REMARK                            x       y       z     vdW  Elec       q    Type
REMARK                         _______ _______ _______ _____ _____    ______ ____
ROOT
ATOM      1  C   UNL     1       2.223   5.120  16.809  0.00  0.00    +0.000 C 
ATOM      2  O   UNL     1       1.236   5.821  16.769  0.00  0.00    +0.000 OA
ENDROOT
BRANCH   1   3
ATOM      3  C   UNL     1       2.427   4.081  15.747  0.00  0.00    +0.000 C 
ATOM      4  C   UNL     1       3.649   3.732  15.230  0.00  0.00    +0.000 C 
BRANCH   4   5
ATOM      5  C   UNL     1       3.765   2.573  14.271  0.00  0.00    +0.000 A 
ATOM      6  C   UNL     1       4.676   2.613  13.233  0.00  0.00    +0.000 A 
ATOM      7  C   UNL     1       4.729   1.529  12.363  0.00  0.00    +0.000 A 
ATOM      8  C   UNL     1       3.909   0.415  12.489  0.00  0.00    +0.000 A 
ATOM      9  C   UNL     1       2.999   0.417  13.519  0.00  0.00    +0.000 A 
ATOM     10  C   UNL     1       2.924   1.489  14.419  0.00  0.00    +0.000 A 
BRANCH   8  11
ATOM     11  O   UNL     1       3.967  -0.635  11.580  0.00  0.00    +0.000 OA
ATOM     12  C   UNL     1       4.942  -0.492  10.539  0.00  0.00    +0.000 C 
ENDBRANCH   8  11
ENDBRANCH   4   5
ENDBRANCH   1   3
BRANCH   1  13
ATOM     13  O   UNL     1       3.126   5.267  17.901  0.00  0.00    +0.000 OA
BRANCH  13  14
ATOM     14  C   UNL     1       2.848   4.524  19.131  0.00  0.00    +0.000 C 
BRANCH  14  15
ATOM     15  C   UNL     1       2.187   5.353  20.214  0.00  0.00    +0.000 C 
ATOM     16  C   UNL     1       0.630   5.096  20.225  0.00  0.00    +0.000 C 
ENDBRANCH  14  15
BRANCH  14  17
ATOM     17  C   UNL     1       4.108   3.930  19.693  0.00  0.00    +0.000 C 
BRANCH  17  18
ATOM     18  C   UNL     1       4.826   3.057  18.650  0.00  0.00    +0.000 C 
BRANCH  18  20
ATOM     19  C   UNL     1       4.931   0.878  17.440  0.00  0.00    +0.000 C 
ATOM     20  C   UNL     1       4.081   1.782  18.350  0.00  0.00    +0.000 C 
ENDBRANCH  18  20
ENDBRANCH  17  18
ENDBRANCH  14  17
ENDBRANCH  13  14
ENDBRANCH   1  13
TORSDOF 9
ENDMDL
MODEL 3
REMARK VINA RESULT:      -2.8      8.554     11.575
REMARK  Name = bg33_2_ligand
REMARK  12 active torsions:
REMARK  status: ('A' for Active; 'I' for Inactive)
REMARK    1  A    between atoms: C_1  and  C_2
REMARK    2  A    between atoms: C_2  and  C_3
REMARK    3  A    between atoms: C_3  and  C_4
REMARK    4  A    between atoms: C_4  and  C_5
REMARK    5  A    between atoms: C_5  and  C_6
REMARK    6  A    between atoms: C_5  and  O_8
REMARK    7  A    between atoms: C_6  and  C_7
REMARK    8  A    between atoms: O_8  and  C_9
REMARK    9  A    between atoms: C_9  and  C_11
REMARK   10  A    between atoms: C_12  and  C_13
REMARK   11  A    between atoms: C_16  and  O_17
REMARK   12  A    between atoms: O_17  and  C_18
REMARK                            x       y       z     vdW  Elec       q    Type
REMARK                         _______ _______ _______ _____ _____    ______ ____
ROOT
ATOM      1  C   UNL     1      -4.694  -5.230  15.528  0.00  0.00    +0.000 C 
ATOM      2  O   UNL     1      -5.877  -5.478  15.615  0.00  0.00    +0.000 OA
ENDROOT
BRANCH   1   3
ATOM      3  C   UNL     1      -4.091  -5.006  14.173  0.00  0.00    +0.000 C 
ATOM      4  C   UNL     1      -4.427  -3.972  13.337  0.00  0.00    +0.000 C 
BRANCH   4   5
ATOM      5  C   UNL     1      -3.659  -3.749  12.057  0.00  0.00    +0.000 A 
ATOM      6  C   UNL     1      -2.586  -4.558  11.735  0.00  0.00    +0.000 A 
ATOM      7  C   UNL     1      -1.897  -4.297  10.555  0.00  0.00    +0.000 A 
ATOM      8  C   UNL     1      -2.237  -3.264   9.692  0.00  0.00    +0.000 A 
ATOM      9  C   UNL     1      -3.294  -2.464  10.053  0.00  0.00    +0.000 A 
ATOM     10  C   UNL     1      -4.017  -2.703  11.231  0.00  0.00    +0.000 A 
BRANCH   8  11
ATOM     11  O   UNL     1      -1.503  -3.011   8.538  0.00  0.00    +0.000 OA
ATOM     12  C   UNL     1      -0.473  -3.965   8.246  0.00  0.00    +0.000 C 
ENDBRANCH   8  11
ENDBRANCH   4   5
ENDBRANCH   1   3
BRANCH   1  13
ATOM     13  O   UNL     1      -3.905  -5.219  16.714  0.00  0.00    +0.000 OA
BRANCH  13  14
ATOM     14  C   UNL     1      -3.419  -3.931  17.209  0.00  0.00    +0.000 C 
BRANCH  14  15
ATOM     15  C   UNL     1      -4.306  -2.758  16.841  0.00  0.00    +0.000 C 
ATOM     16  C   UNL     1      -5.469  -2.601  17.898  0.00  0.00    +0.000 C 
ENDBRANCH  14  15
BRANCH  14  17
ATOM     17  C   UNL     1      -2.032  -3.653  16.702  0.00  0.00    +0.000 C 
BRANCH  17  18
ATOM     18  C   UNL     1      -2.013  -2.422  15.780  0.00  0.00    +0.000 C 
BRANCH  18  20
ATOM     19  C   UNL     1      -0.385  -3.960  14.679  0.00  0.00    +0.000 C 
ATOM     20  C   UNL     1      -1.117  -2.609  14.583  0.00  0.00    +0.000 C 
ENDBRANCH  18  20
ENDBRANCH  17  18
ENDBRANCH  14  17
ENDBRANCH  13  14
ENDBRANCH   1  13
TORSDOF 9
ENDMDL
MODEL 4
REMARK VINA RESULT:      -2.8      7.976      9.139
REMARK  Name = bg33_2_ligand
REMARK  12 active torsions:
REMARK  status: ('A' for Active; 'I' for Inactive)
REMARK    1  A    between atoms: C_1  and  C_2
REMARK    2  A    between atoms: C_2  and  C_3
REMARK    3  A    between atoms: C_3  and  C_4
REMARK    4  A    between atoms: C_4  and  C_5
REMARK    5  A    between atoms: C_5  and  C_6
REMARK    6  A    between atoms: C_5  and  O_8
REMARK    7  A    between atoms: C_6  and  C_7
REMARK    8  A    between atoms: O_8  and  C_9
REMARK    9  A    between atoms: C_9  and  C_11
REMARK   10  A    between atoms: C_12  and  C_13
REMARK   11  A    between atoms: C_16  and  O_17
REMARK   12  A    between atoms: O_17  and  C_18
REMARK                            x       y       z     vdW  Elec       q    Type
REMARK                         _______ _______ _______ _____ _____    ______ ____
ROOT
ATOM      1  C   UNL     1      -2.495  -3.333  10.284  0.00  0.00    +0.000 C 
ATOM      2  O   UNL     1      -2.837  -2.533   9.441  0.00  0.00    +0.000 OA
ENDROOT
BRANCH   1   3
ATOM      3  C   UNL     1      -2.720  -3.013  11.732  0.00  0.00    +0.000 C 
ATOM      4  C   UNL     1      -3.024  -3.944  12.692  0.00  0.00    +0.000 C 
BRANCH   4   5
ATOM      5  C   UNL     1      -3.086  -3.543  14.146  0.00  0.00    +0.000 A 
ATOM      6  C   UNL     1      -4.230  -3.771  14.885  0.00  0.00    +0.000 A 
ATOM      7  C   UNL     1      -4.246  -3.363  16.215  0.00  0.00    +0.000 A 
ATOM      8  C   UNL     1      -3.168  -2.738  16.828  0.00  0.00    +0.000 A 
ATOM      9  C   UNL     1      -2.054  -2.506  16.058  0.00  0.00    +0.000 A 
ATOM     10  C   UNL     1      -2.000  -2.911  14.717  0.00  0.00    +0.000 A 
BRANCH   8  11
ATOM     11  O   UNL     1      -3.232  -2.313  18.151  0.00  0.00    +0.000 OA
ATOM     12  C   UNL     1      -2.001  -1.818  18.695  0.00  0.00    +0.000 C 
ENDBRANCH   8  11
ENDBRANCH   4   5
ENDBRANCH   1   3
BRANCH   1  13
ATOM     13  O   UNL     1      -1.835  -4.526   9.870  0.00  0.00    +0.000 OA
BRANCH  13  14
ATOM     14  C   UNL     1      -0.372  -4.551   9.898  0.00  0.00    +0.000 C 
BRANCH  14  15
ATOM     15  C   UNL     1       0.271  -4.378   8.536  0.00  0.00    +0.000 C 
ATOM     16  C   UNL     1       1.732  -3.801   8.691  0.00  0.00    +0.000 C 
ENDBRANCH  14  15
BRANCH  14  17
ATOM     17  C   UNL     1       0.130  -5.833  10.499  0.00  0.00    +0.000 C 
BRANCH  17  18
ATOM     18  C   UNL     1       0.103  -5.776  12.035  0.00  0.00    +0.000 C 
BRANCH  18  20
ATOM     19  C   UNL     1       2.283  -4.616  12.396  0.00  0.00    +0.000 C 
ATOM     20  C   UNL     1       0.757  -4.532  12.581  0.00  0.00    +0.000 C 
ENDBRANCH  18  20
ENDBRANCH  17  18
ENDBRANCH  14  17
ENDBRANCH  13  14
ENDBRANCH   1  13
TORSDOF 9
ENDMDL
MODEL 5
REMARK VINA RESULT:      -2.8      9.612     10.876
REMARK  Name = bg33_2_ligand
REMARK  12 active torsions:
REMARK  status: ('A' for Active; 'I' for Inactive)
REMARK    1  A    between atoms: C_1  and  C_2
REMARK    2  A    between atoms: C_2  and  C_3
REMARK    3  A    between atoms: C_3  and  C_4
REMARK    4  A    between atoms: C_4  and  C_5
REMARK    5  A    between atoms: C_5  and  C_6
REMARK    6  A    between atoms: C_5  and  O_8
REMARK    7  A    between atoms: C_6  and  C_7
REMARK    8  A    between atoms: O_8  and  C_9
REMARK    9  A    between atoms: C_9  and  C_11
REMARK   10  A    between atoms: C_12  and  C_13
REMARK   11  A    between atoms: C_16  and  O_17
REMARK   12  A    between atoms: O_17  and  C_18
REMARK                            x       y       z     vdW  Elec       q    Type
REMARK                         _______ _______ _______ _____ _____    ______ ____
ROOT
ATOM      1  C   UNL     1      -4.660  -5.037  13.894  0.00  0.00    +0.000 C 
ATOM      2  O   UNL     1      -5.343  -6.031  13.785  0.00  0.00    +0.000 OA
ENDROOT
BRANCH   1   3
ATOM      3  C   UNL     1      -5.142  -3.908  14.756  0.00  0.00    +0.000 C 
ATOM      4  C   UNL     1      -6.421  -3.416  14.742  0.00  0.00    +0.000 C 
BRANCH   4   5
ATOM      5  C   UNL     1      -6.847  -2.376  15.750  0.00  0.00    +0.000 A 
ATOM      6  C   UNL     1      -6.406  -2.448  17.057  0.00  0.00    +0.000 A 
ATOM      7  C   UNL     1      -6.845  -1.479  17.953  0.00  0.00    +0.000 A 
ATOM      8  C   UNL     1      -7.705  -0.449  17.594  0.00  0.00    +0.000 A 
ATOM      9  C   UNL     1      -8.143  -0.420  16.292  0.00  0.00    +0.000 A 
ATOM     10  C   UNL     1      -7.714  -1.375  15.360  0.00  0.00    +0.000 A 
BRANCH   8  11
ATOM     11  O   UNL     1      -8.150   0.482  18.526  0.00  0.00    +0.000 OA
ATOM     12  C   UNL     1      -9.565   0.721  18.526  0.00  0.00    +0.000 C 
ENDBRANCH   8  11
ENDBRANCH   4   5
ENDBRANCH   1   3
BRANCH   1  13
ATOM     13  O   UNL     1      -3.449  -4.950  13.147  0.00  0.00    +0.000 OA
BRANCH  13  14
ATOM     14  C   UNL     1      -2.840  -3.631  12.971  0.00  0.00    +0.000 C 
BRANCH  14  15
ATOM     15  C   UNL     1      -2.841  -3.141  11.536  0.00  0.00    +0.000 C 
ATOM     16  C   UNL     1      -4.237  -2.495  11.182  0.00  0.00    +0.000 C 
ENDBRANCH  14  15
BRANCH  14  17
ATOM     17  C   UNL     1      -1.423  -3.626  13.471  0.00  0.00    +0.000 C 
BRANCH  17  18
ATOM     18  C   UNL     1      -1.252  -2.648  14.646  0.00  0.00    +0.000 C 
BRANCH  18  20
ATOM     19  C   UNL     1      -2.543  -2.132  16.718  0.00  0.00    +0.000 C 
ATOM     20  C   UNL     1      -1.761  -3.211  15.948  0.00  0.00    +0.000 C 
ENDBRANCH  18  20
ENDBRANCH  17  18
ENDBRANCH  14  17
ENDBRANCH  13  14
ENDBRANCH   1  13
TORSDOF 9
ENDMDL
MODEL 6
REMARK VINA RESULT:      -2.7      8.302     11.545
REMARK  Name = bg33_2_ligand
REMARK  12 active torsions:
REMARK  status: ('A' for Active; 'I' for Inactive)
REMARK    1  A    between atoms: C_1  and  C_2
REMARK    2  A    between atoms: C_2  and  C_3
REMARK    3  A    between atoms: C_3  and  C_4
REMARK    4  A    between atoms: C_4  and  C_5
REMARK    5  A    between atoms: C_5  and  C_6
REMARK    6  A    between atoms: C_5  and  O_8
REMARK    7  A    between atoms: C_6  and  C_7
REMARK    8  A    between atoms: O_8  and  C_9
REMARK    9  A    between atoms: C_9  and  C_11
REMARK   10  A    between atoms: C_12  and  C_13
REMARK   11  A    between atoms: C_16  and  O_17
REMARK   12  A    between atoms: O_17  and  C_18
REMARK                            x       y       z     vdW  Elec       q    Type
REMARK                         _______ _______ _______ _____ _____    ______ ____
ROOT
ATOM      1  C   UNL     1      -1.593  -2.798  15.483  0.00  0.00    +0.000 C 
ATOM      2  O   UNL     1      -0.881  -3.604  16.039  0.00  0.00    +0.000 OA
ENDROOT
BRANCH   1   3
ATOM      3  C   UNL     1      -1.630  -2.765  13.983  0.00  0.00    +0.000 C 
ATOM      4  C   UNL     1      -2.045  -3.808  13.197  0.00  0.00    +0.000 C 
BRANCH   4   5
ATOM      5  C   UNL     1      -2.185  -3.627  11.705  0.00  0.00    +0.000 A 
ATOM      6  C   UNL     1      -3.110  -2.739  11.192  0.00  0.00    +0.000 A 
ATOM      7  C   UNL     1      -3.215  -2.625   9.809  0.00  0.00    +0.000 A 
ATOM      8  C   UNL     1      -2.437  -3.362   8.927  0.00  0.00    +0.000 A 
ATOM      9  C   UNL     1      -1.543  -4.254   9.470  0.00  0.00    +0.000 A 
ATOM     10  C   UNL     1      -1.404  -4.388  10.858  0.00  0.00    +0.000 A 
BRANCH   8  11
ATOM     11  O   UNL     1      -2.595  -3.247   7.550  0.00  0.00    +0.000 OA
ATOM     12  C   UNL     1      -2.151  -4.376   6.786  0.00  0.00    +0.000 C 
ENDBRANCH   8  11
ENDBRANCH   4   5
ENDBRANCH   1   3
BRANCH   1  13
ATOM     13  O   UNL     1      -2.325  -1.866  16.274  0.00  0.00    +0.000 OA
BRANCH  13  14
ATOM     14  C   UNL     1      -3.447  -2.367  17.068  0.00  0.00    +0.000 C 
BRANCH  14  15
ATOM     15  C   UNL     1      -3.108  -2.610  18.526  0.00  0.00    +0.000 C 
ATOM     16  C   UNL     1      -1.875  -1.721  18.955  0.00  0.00    +0.000 C 
ENDBRANCH  14  15
BRANCH  14  17
ATOM     17  C   UNL     1      -3.985  -3.644  16.488  0.00  0.00    +0.000 C 
BRANCH  17  18
ATOM     18  C   UNL     1      -5.284  -3.396  15.704  0.00  0.00    +0.000 C 
BRANCH  18  20
ATOM     19  C   UNL     1      -6.062  -3.478  13.335  0.00  0.00    +0.000 C 
ATOM     20  C   UNL     1      -5.396  -4.264  14.478  0.00  0.00    +0.000 C 
ENDBRANCH  18  20
ENDBRANCH  17  18
ENDBRANCH  14  17
ENDBRANCH  13  14
ENDBRANCH   1  13
TORSDOF 9
ENDMDL
MODEL 7
REMARK VINA RESULT:      -2.7     10.100     11.466
REMARK  Name = bg33_2_ligand
REMARK  12 active torsions:
REMARK  status: ('A' for Active; 'I' for Inactive)
REMARK    1  A    between atoms: C_1  and  C_2
REMARK    2  A    between atoms: C_2  and  C_3
REMARK    3  A    between atoms: C_3  and  C_4
REMARK    4  A    between atoms: C_4  and  C_5
REMARK    5  A    between atoms: C_5  and  C_6
REMARK    6  A    between atoms: C_5  and  O_8
REMARK    7  A    between atoms: C_6  and  C_7
REMARK    8  A    between atoms: O_8  and  C_9
REMARK    9  A    between atoms: C_9  and  C_11
REMARK   10  A    between atoms: C_12  and  C_13
REMARK   11  A    between atoms: C_16  and  O_17
REMARK   12  A    between atoms: O_17  and  C_18
REMARK                            x       y       z     vdW  Elec       q    Type
REMARK                         _______ _______ _______ _____ _____    ______ ____
ROOT
ATOM      1  C   UNL     1      -4.722  -3.558  17.934  0.00  0.00    +0.000 C 
ATOM      2  O   UNL     1      -4.735  -4.419  18.786  0.00  0.00    +0.000 OA
ENDROOT
BRANCH   1   3
ATOM      3  C   UNL     1      -5.783  -2.497  17.949  0.00  0.00    +0.000 C 
ATOM      4  C   UNL     1      -6.184  -1.789  16.845  0.00  0.00    +0.000 C 
BRANCH   4   5
ATOM      5  C   UNL     1      -7.360  -0.847  16.932  0.00  0.00    +0.000 A 
ATOM      6  C   UNL     1      -7.934  -0.338  15.784  0.00  0.00    +0.000 A 
ATOM      7  C   UNL     1      -9.001   0.545  15.918  0.00  0.00    +0.000 A 
ATOM      8  C   UNL     1      -9.510   0.936  17.149  0.00  0.00    +0.000 A 
ATOM      9  C   UNL     1      -8.901   0.428  18.272  0.00  0.00    +0.000 A 
ATOM     10  C   UNL     1      -7.830  -0.470  18.174  0.00  0.00    +0.000 A 
BRANCH   8  11
ATOM     11  O   UNL     1     -10.557   1.847  17.246  0.00  0.00    +0.000 OA
ATOM     12  C   UNL     1     -10.742   2.432  18.542  0.00  0.00    +0.000 C 
ENDBRANCH   8  11
ENDBRANCH   4   5
ENDBRANCH   1   3
BRANCH   1  13
ATOM     13  O   UNL     1      -3.734  -3.620  16.910  0.00  0.00    +0.000 OA
BRANCH  13  14
ATOM     14  C   UNL     1      -2.702  -2.583  16.883  0.00  0.00    +0.000 C 
BRANCH  14  15
ATOM     15  C   UNL     1      -1.910  -2.538  15.591  0.00  0.00    +0.000 C 
ATOM     16  C   UNL     1      -2.638  -3.386  14.475  0.00  0.00    +0.000 C 
ENDBRANCH  14  15
BRANCH  14  17
ATOM     17  C   UNL     1      -1.739  -2.757  18.022  0.00  0.00    +0.000 C 
BRANCH  17  18
ATOM     18  C   UNL     1      -1.794  -1.561  18.987  0.00  0.00    +0.000 C 
BRANCH  18  20
ATOM     19  C   UNL     1      -2.625  -2.734  21.026  0.00  0.00    +0.000 C 
ATOM     20  C   UNL     1      -1.460  -1.944  20.405  0.00  0.00    +0.000 C 
ENDBRANCH  18  20
ENDBRANCH  17  18
ENDBRANCH  14  17
ENDBRANCH  13  14
ENDBRANCH   1  13
TORSDOF 9
ENDMDL
MODEL 8
REMARK VINA RESULT:      -2.7      3.726      8.704
REMARK  Name = bg33_2_ligand
REMARK  12 active torsions:
REMARK  status: ('A' for Active; 'I' for Inactive)
REMARK    1  A    between atoms: C_1  and  C_2
REMARK    2  A    between atoms: C_2  and  C_3
REMARK    3  A    between atoms: C_3  and  C_4
REMARK    4  A    between atoms: C_4  and  C_5
REMARK    5  A    between atoms: C_5  and  C_6
REMARK    6  A    between atoms: C_5  and  O_8
REMARK    7  A    between atoms: C_6  and  C_7
REMARK    8  A    between atoms: O_8  and  C_9
REMARK    9  A    between atoms: C_9  and  C_11
REMARK   10  A    between atoms: C_12  and  C_13
REMARK   11  A    between atoms: C_16  and  O_17
REMARK   12  A    between atoms: O_17  and  C_18
REMARK                            x       y       z     vdW  Elec       q    Type
REMARK                         _______ _______ _______ _____ _____    ______ ____
ROOT
ATOM      1  C   UNL     1       3.989   1.419  11.691  0.00  0.00    +0.000 C 
ATOM      2  O   UNL     1       4.389   2.561  11.628  0.00  0.00    +0.000 OA
ENDROOT
BRANCH   1   3
ATOM      3  C   UNL     1       4.343   0.458  10.596  0.00  0.00    +0.000 C 
ATOM      4  C   UNL     1       4.119  -0.894  10.651  0.00  0.00    +0.000 C 
BRANCH   4   5
ATOM      5  C   UNL     1       4.377  -1.757   9.440  0.00  0.00    +0.000 A 
ATOM      6  C   UNL     1       5.627  -1.785   8.854  0.00  0.00    +0.000 A 
ATOM      7  C   UNL     1       5.807  -2.579   7.726  0.00  0.00    +0.000 A 
ATOM      8  C   UNL     1       4.790  -3.339   7.164  0.00  0.00    +0.000 A 
ATOM      9  C   UNL     1       3.552  -3.271   7.758  0.00  0.00    +0.000 A 
ATOM     10  C   UNL     1       3.337  -2.488   8.901  0.00  0.00    +0.000 A 
BRANCH   8  11
ATOM     11  O   UNL     1       4.998  -4.095   6.016  0.00  0.00    +0.000 OA
ATOM     12  C   UNL     1       3.808  -4.489   5.318  0.00  0.00    +0.000 C 
ENDBRANCH   8  11
ENDBRANCH   4   5
ENDBRANCH   1   3
BRANCH   1  13
ATOM     13  O   UNL     1       3.142   1.047  12.775  0.00  0.00    +0.000 OA
BRANCH  13  14
ATOM     14  C   UNL     1       3.679   1.136  14.133  0.00  0.00    +0.000 C 
BRANCH  14  15
ATOM     15  C   UNL     1       3.771  -0.198  14.846  0.00  0.00    +0.000 C 
ATOM     16  C   UNL     1       2.868  -1.269  14.118  0.00  0.00    +0.000 C 
ENDBRANCH  14  15
BRANCH  14  17
ATOM     17  C   UNL     1       2.851   2.066  14.975  0.00  0.00    +0.000 C 
BRANCH  17  18
ATOM     18  C   UNL     1       3.554   3.421  15.164  0.00  0.00    +0.000 C 
BRANCH  18  20
ATOM     19  C   UNL     1       1.781   4.935  16.053  0.00  0.00    +0.000 C 
ATOM     20  C   UNL     1       3.069   4.160  16.384  0.00  0.00    +0.000 C 
ENDBRANCH  18  20
ENDBRANCH  17  18
ENDBRANCH  14  17
ENDBRANCH  13  14
ENDBRANCH   1  13
TORSDOF 9
ENDMDL
MODEL 9
REMARK VINA RESULT:      -2.7      8.335      9.443
REMARK  Name = bg33_2_ligand
REMARK  12 active torsions:
REMARK  status: ('A' for Active; 'I' for Inactive)
REMARK    1  A    between atoms: C_1  and  C_2
REMARK    2  A    between atoms: C_2  and  C_3
REMARK    3  A    between atoms: C_3  and  C_4
REMARK    4  A    between atoms: C_4  and  C_5
REMARK    5  A    between atoms: C_5  and  C_6
REMARK    6  A    between atoms: C_5  and  O_8
REMARK    7  A    between atoms: C_6  and  C_7
REMARK    8  A    between atoms: O_8  and  C_9
REMARK    9  A    between atoms: C_9  and  C_11
REMARK   10  A    between atoms: C_12  and  C_13
REMARK   11  A    between atoms: C_16  and  O_17
REMARK   12  A    between atoms: O_17  and  C_18
REMARK                            x       y       z     vdW  Elec       q    Type
REMARK                         _______ _______ _______ _____ _____    ______ ____
ROOT
ATOM      1  C   UNL     1      -0.860  -5.414  11.368  0.00  0.00    +0.000 C 
ATOM      2  O   UNL     1      -0.795  -6.589  11.083  0.00  0.00    +0.000 OA
ENDROOT
BRANCH   1   3
ATOM      3  C   UNL     1      -1.535  -5.006  12.644  0.00  0.00    +0.000 C 
ATOM      4  C   UNL     1      -1.413  -3.769  13.222  0.00  0.00    +0.000 C 
BRANCH   4   5
ATOM      5  C   UNL     1      -2.248  -3.407  14.427  0.00  0.00    +0.000 A 
ATOM      6  C   UNL     1      -3.556  -3.838  14.525  0.00  0.00    +0.000 A 
ATOM      7  C   UNL     1      -4.291  -3.458  15.645  0.00  0.00    +0.000 A 
ATOM      8  C   UNL     1      -3.769  -2.669  16.661  0.00  0.00    +0.000 A 
ATOM      9  C   UNL     1      -2.471  -2.239  16.521  0.00  0.00    +0.000 A 
ATOM     10  C   UNL     1      -1.699  -2.608  15.410  0.00  0.00    +0.000 A 
BRANCH   8  11
ATOM     11  O   UNL     1      -4.543  -2.281  17.749  0.00  0.00    +0.000 OA
ATOM     12  C   UNL     1      -5.959  -2.279  17.524  0.00  0.00    +0.000 C 
ENDBRANCH   8  11
ENDBRANCH   4   5
ENDBRANCH   1   3
BRANCH   1  13
ATOM     13  O   UNL     1      -0.345  -4.455  10.449  0.00  0.00    +0.000 OA
BRANCH  13  14
ATOM     14  C   UNL     1      -0.713  -4.584   9.038  0.00  0.00    +0.000 C 
BRANCH  14  15
ATOM     15  C   UNL     1       0.472  -4.761   8.109  0.00  0.00    +0.000 C 
ATOM     16  C   UNL     1       1.823  -4.639   8.917  0.00  0.00    +0.000 C 
ENDBRANCH  14  15
BRANCH  14  17
ATOM     17  C   UNL     1      -1.499  -3.389   8.579  0.00  0.00    +0.000 C 
BRANCH  17  18
ATOM     18  C   UNL     1      -2.943  -3.436   9.108  0.00  0.00    +0.000 C 
BRANCH  18  20
ATOM     19  C   UNL     1      -4.382  -2.869  11.066  0.00  0.00    +0.000 C 
ATOM     20  C   UNL     1      -3.195  -2.422  10.195  0.00  0.00    +0.000 C 
ENDBRANCH  18  20
ENDBRANCH  17  18
ENDBRANCH  14  17
ENDBRANCH  13  14
ENDBRANCH   1  13
TORSDOF 9
ENDMDL
