REMARK  Name = bg33_3_ligand
REMARK  12 active torsions:
REMARK  status: ('A' for Active; 'I' for Inactive)
REMARK    1  A    between atoms: C_1  and  C_2
REMARK    2  A    between atoms: C_2  and  C_3
REMARK    3  A    between atoms: C_3  and  C_4
REMARK    4  A    between atoms: C_4  and  C_5
REMARK    5  A    between atoms: C_5  and  C_6
REMARK    6  A    between atoms: C_5  and  O_8
REMARK    7  A    between atoms: C_6  and  C_7
REMARK    8  A    between atoms: O_8  and  C_9
REMARK    9  A    between atoms: C_9  and  C_11
REMARK   10  A    between atoms: C_12  and  C_13
REMARK   11  A    between atoms: C_16  and  O_17
REMARK   12  A    between atoms: O_17  and  C_18
REMARK                            x       y       z     vdW  Elec       q    Type
REMARK                         _______ _______ _______ _____ _____    ______ ____
ROOT
ATOM      1  C   UNL     1      -8.718   7.762  -0.647  0.00  0.00    +0.000 C 
ATOM      2  O   UNL     1      -8.140   7.772   0.415  0.00  0.00    +0.000 OA
ENDROOT
BRANCH   1   3
ATOM      3  C   UNL     1      -8.242   8.639  -1.853  0.00  0.00    +0.000 C 
ATOM      4  C   UNL     1      -7.362   8.110  -2.734  0.00  0.00    +0.000 C 
BRANCH   4   5
ATOM      5  C   UNL     1      -6.801   8.883  -3.812  0.00  0.00    +0.000 A 
ATOM      6  C   UNL     1      -5.895   9.893  -3.572  0.00  0.00    +0.000 A 
ATOM      7  C   UNL     1      -5.318  10.596  -4.566  0.00  0.00    +0.000 A 
ATOM      8  C   UNL     1      -5.657  10.288  -5.864  0.00  0.00    +0.000 A 
ATOM      9  C   UNL     1      -6.575   9.322  -6.137  0.00  0.00    +0.000 A 
ATOM     10  C   UNL     1      -7.143   8.610  -5.102  0.00  0.00    +0.000 A 
BRANCH   8  11
ATOM     11  O   UNL     1      -5.155  10.970  -6.915  0.00  0.00    +0.000 OA
ATOM     12  C   UNL     1      -3.925  11.635  -6.686  0.00  0.00    +0.000 C 
ENDBRANCH   8  11
ENDBRANCH   4   5
ENDBRANCH   1   3
BRANCH   1  13
ATOM     13  O   UNL     1      -9.746   7.032  -0.740  0.00  0.00    +0.000 OA
BRANCH  13  14
ATOM     14  C   UNL     1      -9.922   5.985   0.266  0.00  0.00    +0.000 C 
BRANCH  14  15
ATOM     15  C   UNL     1     -10.693   4.899  -0.327  0.00  0.00    +0.000 C 
ATOM     16  C   UNL     1     -11.397   5.287  -1.592  0.00  0.00    +0.000 C 
ENDBRANCH  14  15
BRANCH  14  17
ATOM     17  C   UNL     1     -10.640   6.527   1.488  0.00  0.00    +0.000 C 
BRANCH  17  18
ATOM     18  C   UNL     1      -9.995   5.878   2.733  0.00  0.00    +0.000 C 
BRANCH  18  20
ATOM     19  C   UNL     1      -9.414   6.131   5.119  0.00  0.00    +0.000 C 
ATOM     20  C   UNL     1     -10.416   6.527   4.013  0.00  0.00    +0.000 C 
ENDBRANCH  18  20
ENDBRANCH  17  18
ENDBRANCH  14  17
ENDBRANCH  13  14
ENDBRANCH   1  13
TORSDOF 9
