MODEL 1
REMARK VINA RESULT:      -4.0      0.000      0.000
REMARK  Name = bg33_3_ligand
REMARK  12 active torsions:
REMARK  status: ('A' for Active; 'I' for Inactive)
REMARK    1  A    between atoms: C_1  and  C_2
REMARK    2  A    between atoms: C_2  and  C_3
REMARK    3  A    between atoms: C_3  and  C_4
REMARK    4  A    between atoms: C_4  and  C_5
REMARK    5  A    between atoms: C_5  and  C_6
REMARK    6  A    between atoms: C_5  and  O_8
REMARK    7  A    between atoms: C_6  and  C_7
REMARK    8  A    between atoms: O_8  and  C_9
REMARK    9  A    between atoms: C_9  and  C_11
REMARK   10  A    between atoms: C_12  and  C_13
REMARK   11  A    between atoms: C_16  and  O_17
REMARK   12  A    between atoms: O_17  and  C_18
REMARK                            x       y       z     vdW  Elec       q    Type
REMARK                         _______ _______ _______ _____ _____    ______ ____
ROOT
ATOM      1  C   UNL     1      -1.677  11.830  -2.905  0.00  0.00    +0.000 C 
ATOM      2  O   UNL     1      -2.188  12.836  -3.340  0.00  0.00    +0.000 OA
ENDROOT
BRANCH   1   3
ATOM      3  C   UNL     1      -1.633  11.526  -1.370  0.00  0.00    +0.000 C 
ATOM      4  C   UNL     1      -1.641  10.236  -0.963  0.00  0.00    +0.000 C 
BRANCH   4   5
ATOM      5  C   UNL     1      -1.702   9.874   0.429  0.00  0.00    +0.000 A 
ATOM      6  C   UNL     1      -0.743   9.066   1.001  0.00  0.00    +0.000 A 
ATOM      7  C   UNL     1      -0.749   8.755   2.312  0.00  0.00    +0.000 A 
ATOM      8  C   UNL     1      -1.758   9.265   3.098  0.00  0.00    +0.000 A 
ATOM      9  C   UNL     1      -2.742  10.035   2.561  0.00  0.00    +0.000 A 
ATOM     10  C   UNL     1      -2.706  10.348   1.218  0.00  0.00    +0.000 A 
BRANCH   8  11
ATOM     11  O   UNL     1      -1.860   8.970   4.411  0.00  0.00    +0.000 OA
ATOM     12  C   UNL     1      -1.934  10.081   5.287  0.00  0.00    +0.000 C 
ENDBRANCH   8  11
ENDBRANCH   4   5
ENDBRANCH   1   3
BRANCH   1  13
ATOM     13  O   UNL     1      -1.150  11.041  -3.740  0.00  0.00    +0.000 OA
BRANCH  13  14
ATOM     14  C   UNL     1      -2.003  10.527  -4.812  0.00  0.00    +0.000 C 
BRANCH  14  15
ATOM     15  C   UNL     1      -2.578   9.259  -4.377  0.00  0.00    +0.000 C 
ATOM     16  C   UNL     1      -4.054   9.328  -4.125  0.00  0.00    +0.000 C 
ENDBRANCH  14  15
BRANCH  14  17
ATOM     17  C   UNL     1      -1.204  10.327  -6.086  0.00  0.00    +0.000 C 
BRANCH  17  18
ATOM     18  C   UNL     1      -0.603   8.905  -6.041  0.00  0.00    +0.000 C 
BRANCH  18  20
ATOM     19  C   UNL     1       0.459   7.128  -7.387  0.00  0.00    +0.000 C 
ATOM     20  C   UNL     1      -0.638   8.215  -7.368  0.00  0.00    +0.000 C 
ENDBRANCH  18  20
ENDBRANCH  17  18
ENDBRANCH  14  17
ENDBRANCH  13  14
ENDBRANCH   1  13
TORSDOF 9
ENDMDL
MODEL 2
REMARK VINA RESULT:      -3.8      0.919      2.818
REMARK  Name = bg33_3_ligand
REMARK  12 active torsions:
REMARK  status: ('A' for Active; 'I' for Inactive)
REMARK    1  A    between atoms: C_1  and  C_2
REMARK    2  A    between atoms: C_2  and  C_3
REMARK    3  A    between atoms: C_3  and  C_4
REMARK    4  A    between atoms: C_4  and  C_5
REMARK    5  A    between atoms: C_5  and  C_6
REMARK    6  A    between atoms: C_5  and  O_8
REMARK    7  A    between atoms: C_6  and  C_7
REMARK    8  A    between atoms: O_8  and  C_9
REMARK    9  A    between atoms: C_9  and  C_11
REMARK   10  A    between atoms: C_12  and  C_13
REMARK   11  A    between atoms: C_16  and  O_17
REMARK   12  A    between atoms: O_17  and  C_18
REMARK                            x       y       z     vdW  Elec       q    Type
REMARK                         _______ _______ _______ _____ _____    ______ ____
ROOT
ATOM      1  C   UNL     1      -1.205  11.593  -3.074  0.00  0.00    +0.000 C 
ATOM      2  O   UNL     1      -0.469  12.419  -3.562  0.00  0.00    +0.000 OA
ENDROOT
BRANCH   1   3
ATOM      3  C   UNL     1      -1.000  11.066  -1.614  0.00  0.00    +0.000 C 
ATOM      4  C   UNL     1      -2.067  10.571  -0.946  0.00  0.00    +0.000 C 
BRANCH   4   5
ATOM      5  C   UNL     1      -1.982  10.159   0.432  0.00  0.00    +0.000 A 
ATOM      6  C   UNL     1      -2.857  10.645   1.379  0.00  0.00    +0.000 A 
ATOM      7  C   UNL     1      -2.831  10.236   2.663  0.00  0.00    +0.000 A 
ATOM      8  C   UNL     1      -1.889   9.302   3.030  0.00  0.00    +0.000 A 
ATOM      9  C   UNL     1      -0.986   8.828   2.130  0.00  0.00    +0.000 A 
ATOM     10  C   UNL     1      -1.041   9.254   0.820  0.00  0.00    +0.000 A 
BRANCH   8  11
ATOM     11  O   UNL     1      -1.769   8.870   4.303  0.00  0.00    +0.000 OA
ATOM     12  C   UNL     1      -1.793   9.877   5.300  0.00  0.00    +0.000 C 
ENDBRANCH   8  11
ENDBRANCH   4   5
ENDBRANCH   1   3
BRANCH   1  13
ATOM     13  O   UNL     1      -2.138  11.146  -3.801  0.00  0.00    +0.000 OA
BRANCH  13  14
ATOM     14  C   UNL     1      -1.968   9.808  -4.367  0.00  0.00    +0.000 C 
BRANCH  14  15
ATOM     15  C   UNL     1      -1.802   9.935  -5.810  0.00  0.00    +0.000 C 
ATOM     16  C   UNL     1      -0.862   8.924  -6.394  0.00  0.00    +0.000 C 
ENDBRANCH  14  15
BRANCH  14  17
ATOM     17  C   UNL     1      -3.170   8.935  -4.056  0.00  0.00    +0.000 C 
BRANCH  17  18
ATOM     18  C   UNL     1      -4.380   9.870  -3.835  0.00  0.00    +0.000 C 
BRANCH  18  20
ATOM     19  C   UNL     1      -5.573  10.136  -5.980  0.00  0.00    +0.000 C 
ATOM     20  C   UNL     1      -5.593   9.445  -4.600  0.00  0.00    +0.000 C 
ENDBRANCH  18  20
ENDBRANCH  17  18
ENDBRANCH  14  17
ENDBRANCH  13  14
ENDBRANCH   1  13
TORSDOF 9
ENDMDL
MODEL 3
REMARK VINA RESULT:      -3.7      9.196     11.973
REMARK  Name = bg33_3_ligand
REMARK  12 active torsions:
REMARK  status: ('A' for Active; 'I' for Inactive)
REMARK    1  A    between atoms: C_1  and  C_2
REMARK    2  A    between atoms: C_2  and  C_3
REMARK    3  A    between atoms: C_3  and  C_4
REMARK    4  A    between atoms: C_4  and  C_5
REMARK    5  A    between atoms: C_5  and  C_6
REMARK    6  A    between atoms: C_5  and  O_8
REMARK    7  A    between atoms: C_6  and  C_7
REMARK    8  A    between atoms: O_8  and  C_9
REMARK    9  A    between atoms: C_9  and  C_11
REMARK   10  A    between atoms: C_12  and  C_13
REMARK   11  A    between atoms: C_16  and  O_17
REMARK   12  A    between atoms: O_17  and  C_18
REMARK                            x       y       z     vdW  Elec       q    Type
REMARK                         _______ _______ _______ _____ _____    ______ ____
ROOT
ATOM      1  C   UNL     1      -8.601   3.156   5.395  0.00  0.00    +0.000 C 
ATOM      2  O   UNL     1      -8.395   3.137   6.586  0.00  0.00    +0.000 OA
ENDROOT
BRANCH   1   3
ATOM      3  C   UNL     1      -8.161   4.362   4.500  0.00  0.00    +0.000 C 
ATOM      4  C   UNL     1      -9.114   5.180   3.997  0.00  0.00    +0.000 C 
BRANCH   4   5
ATOM      5  C   UNL     1      -8.800   6.251   3.087  0.00  0.00    +0.000 A 
ATOM      6  C   UNL     1      -7.796   7.154   3.364  0.00  0.00    +0.000 A 
ATOM      7  C   UNL     1      -7.450   8.133   2.506  0.00  0.00    +0.000 A 
ATOM      8  C   UNL     1      -8.134   8.229   1.316  0.00  0.00    +0.000 A 
ATOM      9  C   UNL     1      -9.155   7.378   1.025  0.00  0.00    +0.000 A 
ATOM     10  C   UNL     1      -9.483   6.378   1.915  0.00  0.00    +0.000 A 
BRANCH   8  11
ATOM     11  O   UNL     1      -7.876   9.205   0.420  0.00  0.00    +0.000 OA
ATOM     12  C   UNL     1      -6.822  10.089   0.759  0.00  0.00    +0.000 C 
ENDBRANCH   8  11
ENDBRANCH   4   5
ENDBRANCH   1   3
BRANCH   1  13
ATOM     13  O   UNL     1      -9.214   2.168   4.898  0.00  0.00    +0.000 OA
BRANCH  13  14
ATOM     14  C   UNL     1      -8.674   1.589   3.668  0.00  0.00    +0.000 C 
BRANCH  14  15
ATOM     15  C   UNL     1      -9.772   1.384   2.732  0.00  0.00    +0.000 C 
ATOM     16  C   UNL     1      -9.841   2.424   1.655  0.00  0.00    +0.000 C 
ENDBRANCH  14  15
BRANCH  14  17
ATOM     17  C   UNL     1      -7.980   0.270   3.954  0.00  0.00    +0.000 C 
BRANCH  17  18
ATOM     18  C   UNL     1      -9.039  -0.701   4.522  0.00  0.00    +0.000 C 
BRANCH  18  20
ATOM     19  C   UNL     1      -8.009  -2.090   2.760  0.00  0.00    +0.000 C 
ATOM     20  C   UNL     1      -8.850  -2.109   4.055  0.00  0.00    +0.000 C 
ENDBRANCH  18  20
ENDBRANCH  17  18
ENDBRANCH  14  17
ENDBRANCH  13  14
ENDBRANCH   1  13
TORSDOF 9
ENDMDL
MODEL 4
REMARK VINA RESULT:      -3.7      8.804     11.794
REMARK  Name = bg33_3_ligand
REMARK  12 active torsions:
REMARK  status: ('A' for Active; 'I' for Inactive)
REMARK    1  A    between atoms: C_1  and  C_2
REMARK    2  A    between atoms: C_2  and  C_3
REMARK    3  A    between atoms: C_3  and  C_4
REMARK    4  A    between atoms: C_4  and  C_5
REMARK    5  A    between atoms: C_5  and  C_6
REMARK    6  A    between atoms: C_5  and  O_8
REMARK    7  A    between atoms: C_6  and  C_7
REMARK    8  A    between atoms: O_8  and  C_9
REMARK    9  A    between atoms: C_9  and  C_11
REMARK   10  A    between atoms: C_12  and  C_13
REMARK   11  A    between atoms: C_16  and  O_17
REMARK   12  A    between atoms: O_17  and  C_18
REMARK                            x       y       z     vdW  Elec       q    Type
REMARK                         _______ _______ _______ _____ _____    ______ ____
ROOT
ATOM      1  C   UNL     1      -8.501   3.055   5.520  0.00  0.00    +0.000 C 
ATOM      2  O   UNL     1      -8.921   2.499   6.508  0.00  0.00    +0.000 OA
ENDROOT
BRANCH   1   3
ATOM      3  C   UNL     1      -8.650   4.600   5.318  0.00  0.00    +0.000 C 
ATOM      4  C   UNL     1      -8.183   5.154   4.175  0.00  0.00    +0.000 C 
BRANCH   4   5
ATOM      5  C   UNL     1      -8.193   6.578   3.956  0.00  0.00    +0.000 A 
ATOM      6  C   UNL     1      -8.835   7.431   4.826  0.00  0.00    +0.000 A 
ATOM      7  C   UNL     1      -8.815   8.769   4.671  0.00  0.00    +0.000 A 
ATOM      8  C   UNL     1      -8.129   9.291   3.598  0.00  0.00    +0.000 A 
ATOM      9  C   UNL     1      -7.514   8.477   2.698  0.00  0.00    +0.000 A 
ATOM     10  C   UNL     1      -7.540   7.112   2.886  0.00  0.00    +0.000 A 
BRANCH   8  11
ATOM     11  O   UNL     1      -8.094  10.617   3.349  0.00  0.00    +0.000 OA
ATOM     12  C   UNL     1      -8.485  11.008   2.044  0.00  0.00    +0.000 C 
ENDBRANCH   8  11
ENDBRANCH   4   5
ENDBRANCH   1   3
BRANCH   1  13
ATOM     13  O   UNL     1      -7.958   2.334   4.635  0.00  0.00    +0.000 OA
BRANCH  13  14
ATOM     14  C   UNL     1      -8.728   1.201   4.123  0.00  0.00    +0.000 C 
BRANCH  14  15
ATOM     15  C   UNL     1      -7.813   0.095   3.870  0.00  0.00    +0.000 C 
ATOM     16  C   UNL     1      -8.495  -1.147   3.384  0.00  0.00    +0.000 C 
ENDBRANCH  14  15
BRANCH  14  17
ATOM     17  C   UNL     1      -9.455   1.578   2.846  0.00  0.00    +0.000 C 
BRANCH  17  18
ATOM     18  C   UNL     1     -10.901   1.966   3.230  0.00  0.00    +0.000 C 
BRANCH  18  20
ATOM     19  C   UNL     1     -10.332   3.738   1.607  0.00  0.00    +0.000 C 
ATOM     20  C   UNL     1     -11.283   3.331   2.753  0.00  0.00    +0.000 C 
ENDBRANCH  18  20
ENDBRANCH  17  18
ENDBRANCH  14  17
ENDBRANCH  13  14
ENDBRANCH   1  13
TORSDOF 9
ENDMDL
MODEL 5
REMARK VINA RESULT:      -3.7      2.480      8.510
REMARK  Name = bg33_3_ligand
REMARK  12 active torsions:
REMARK  status: ('A' for Active; 'I' for Inactive)
REMARK    1  A    between atoms: C_1  and  C_2
REMARK    2  A    between atoms: C_2  and  C_3
REMARK    3  A    between atoms: C_3  and  C_4
REMARK    4  A    between atoms: C_4  and  C_5
REMARK    5  A    between atoms: C_5  and  C_6
REMARK    6  A    between atoms: C_5  and  O_8
REMARK    7  A    between atoms: C_6  and  C_7
REMARK    8  A    between atoms: O_8  and  C_9
REMARK    9  A    between atoms: C_9  and  C_11
REMARK   10  A    between atoms: C_12  and  C_13
REMARK   11  A    between atoms: C_16  and  O_17
REMARK   12  A    between atoms: O_17  and  C_18
REMARK                            x       y       z     vdW  Elec       q    Type
REMARK                         _______ _______ _______ _____ _____    ______ ____
ROOT
ATOM      1  C   UNL     1      -2.108  10.053  -4.444  0.00  0.00    +0.000 C 
ATOM      2  O   UNL     1      -3.216   9.570  -4.463  0.00  0.00    +0.000 OA
ENDROOT
BRANCH   1   3
ATOM      3  C   UNL     1      -0.911   9.399  -5.211  0.00  0.00    +0.000 C 
ATOM      4  C   UNL     1      -1.151   8.795  -6.398  0.00  0.00    +0.000 C 
BRANCH   4   5
ATOM      5  C   UNL     1      -0.124   8.086  -7.117  0.00  0.00    +0.000 A 
ATOM      6  C   UNL     1       1.108   7.843  -6.550  0.00  0.00    +0.000 A 
ATOM      7  C   UNL     1       2.066   7.138  -7.183  0.00  0.00    +0.000 A 
ATOM      8  C   UNL     1       1.795   6.652  -8.442  0.00  0.00    +0.000 A 
ATOM      9  C   UNL     1       0.603   6.904  -9.047  0.00  0.00    +0.000 A 
ATOM     10  C   UNL     1      -0.365   7.619  -8.374  0.00  0.00    +0.000 A 
BRANCH   8  11
ATOM     11  O   UNL     1       2.714   5.971  -9.159  0.00  0.00    +0.000 OA
ATOM     12  C   UNL     1       2.416   5.797 -10.533  0.00  0.00    +0.000 C 
ENDBRANCH   8  11
ENDBRANCH   4   5
ENDBRANCH   1   3
BRANCH   1  13
ATOM     13  O   UNL     1      -1.944  11.100  -3.754  0.00  0.00    +0.000 OA
BRANCH  13  14
ATOM     14  C   UNL     1      -2.496  11.107  -2.400  0.00  0.00    +0.000 C 
BRANCH  14  15
ATOM     15  C   UNL     1      -3.341  12.286  -2.252  0.00  0.00    +0.000 C 
ATOM     16  C   UNL     1      -4.660  11.998  -1.600  0.00  0.00    +0.000 C 
ENDBRANCH  14  15
BRANCH  14  17
ATOM     17  C   UNL     1      -1.386  11.128  -1.365  0.00  0.00    +0.000 C 
BRANCH  17  18
ATOM     18  C   UNL     1      -1.639   9.959  -0.388  0.00  0.00    +0.000 C 
BRANCH  18  20
ATOM     19  C   UNL     1      -0.831   8.506   1.438  0.00  0.00    +0.000 C 
ATOM     20  C   UNL     1      -0.478   9.695   0.517  0.00  0.00    +0.000 C 
ENDBRANCH  18  20
ENDBRANCH  17  18
ENDBRANCH  14  17
ENDBRANCH  13  14
ENDBRANCH   1  13
TORSDOF 9
ENDMDL
MODEL 6
REMARK VINA RESULT:      -3.7     11.772     14.534
REMARK  Name = bg33_3_ligand
REMARK  12 active torsions:
REMARK  status: ('A' for Active; 'I' for Inactive)
REMARK    1  A    between atoms: C_1  and  C_2
REMARK    2  A    between atoms: C_2  and  C_3
REMARK    3  A    between atoms: C_3  and  C_4
REMARK    4  A    between atoms: C_4  and  C_5
REMARK    5  A    between atoms: C_5  and  C_6
REMARK    6  A    between atoms: C_5  and  O_8
REMARK    7  A    between atoms: C_6  and  C_7
REMARK    8  A    between atoms: O_8  and  C_9
REMARK    9  A    between atoms: C_9  and  C_11
REMARK   10  A    between atoms: C_12  and  C_13
REMARK   11  A    between atoms: C_16  and  O_17
REMARK   12  A    between atoms: O_17  and  C_18
REMARK                            x       y       z     vdW  Elec       q    Type
REMARK                         _______ _______ _______ _____ _____    ______ ____
ROOT
ATOM      1  C   UNL     1     -10.527   2.725   2.464  0.00  0.00    +0.000 C 
ATOM      2  O   UNL     1     -11.620   3.038   2.877  0.00  0.00    +0.000 OA
ENDROOT
BRANCH   1   3
ATOM      3  C   UNL     1     -10.337   2.036   1.072  0.00  0.00    +0.000 C 
ATOM      4  C   UNL     1     -10.739   0.753   0.922  0.00  0.00    +0.000 C 
BRANCH   4   5
ATOM      5  C   UNL     1     -10.510   0.017  -0.295  0.00  0.00    +0.000 A 
ATOM      6  C   UNL     1     -10.695   0.601  -1.529  0.00  0.00    +0.000 A 
ATOM      7  C   UNL     1     -10.439  -0.049  -2.681  0.00  0.00    +0.000 A 
ATOM      8  C   UNL     1      -9.980  -1.345  -2.610  0.00  0.00    +0.000 A 
ATOM      9  C   UNL     1      -9.821  -1.966  -1.410  0.00  0.00    +0.000 A 
ATOM     10  C   UNL     1     -10.080  -1.274  -0.246  0.00  0.00    +0.000 A 
BRANCH   8  11
ATOM     11  O   UNL     1      -9.738  -2.079  -3.716  0.00  0.00    +0.000 OA
ATOM     12  C   UNL     1     -10.638  -1.885  -4.793  0.00  0.00    +0.000 C 
ENDBRANCH   8  11
ENDBRANCH   4   5
ENDBRANCH   1   3
BRANCH   1  13
ATOM     13  O   UNL     1      -9.537   2.952   3.217  0.00  0.00    +0.000 OA
BRANCH  13  14
ATOM     14  C   UNL     1      -9.234   1.960   4.249  0.00  0.00    +0.000 C 
BRANCH  14  15
ATOM     15  C   UNL     1      -8.895   2.663   5.480  0.00  0.00    +0.000 C 
ATOM     16  C   UNL     1      -8.519   4.098   5.266  0.00  0.00    +0.000 C 
ENDBRANCH  14  15
BRANCH  14  17
ATOM     17  C   UNL     1      -8.081   1.073   3.821  0.00  0.00    +0.000 C 
BRANCH  17  18
ATOM     18  C   UNL     1      -8.362  -0.348   4.359  0.00  0.00    +0.000 C 
BRANCH  18  20
ATOM     19  C   UNL     1      -7.975  -2.216   2.792  0.00  0.00    +0.000 C 
ATOM     20  C   UNL     1      -9.025  -1.233   3.352  0.00  0.00    +0.000 C 
ENDBRANCH  18  20
ENDBRANCH  17  18
ENDBRANCH  14  17
ENDBRANCH  13  14
ENDBRANCH   1  13
TORSDOF 9
ENDMDL
MODEL 7
REMARK VINA RESULT:      -3.6      3.707      9.350
REMARK  Name = bg33_3_ligand
REMARK  12 active torsions:
REMARK  status: ('A' for Active; 'I' for Inactive)
REMARK    1  A    between atoms: C_1  and  C_2
REMARK    2  A    between atoms: C_2  and  C_3
REMARK    3  A    between atoms: C_3  and  C_4
REMARK    4  A    between atoms: C_4  and  C_5
REMARK    5  A    between atoms: C_5  and  C_6
REMARK    6  A    between atoms: C_5  and  O_8
REMARK    7  A    between atoms: C_6  and  C_7
REMARK    8  A    between atoms: O_8  and  C_9
REMARK    9  A    between atoms: C_9  and  C_11
REMARK   10  A    between atoms: C_12  and  C_13
REMARK   11  A    between atoms: C_16  and  O_17
REMARK   12  A    between atoms: O_17  and  C_18
REMARK                            x       y       z     vdW  Elec       q    Type
REMARK                         _______ _______ _______ _____ _____    ______ ____
ROOT
ATOM      1  C   UNL     1       0.356   8.685   6.501  0.00  0.00    +0.000 C 
ATOM      2  O   UNL     1       0.393   7.481   6.604  0.00  0.00    +0.000 OA
ENDROOT
BRANCH   1   3
ATOM      3  C   UNL     1       0.423   9.396   5.108  0.00  0.00    +0.000 C 
ATOM      4  C   UNL     1      -0.501   9.080   4.172  0.00  0.00    +0.000 C 
BRANCH   4   5
ATOM      5  C   UNL     1      -0.450   9.615   2.836  0.00  0.00    +0.000 A 
ATOM      6  C   UNL     1       0.002  10.893   2.594  0.00  0.00    +0.000 A 
ATOM      7  C   UNL     1       0.107  11.399   1.349  0.00  0.00    +0.000 A 
ATOM      8  C   UNL     1      -0.258  10.600   0.289  0.00  0.00    +0.000 A 
ATOM      9  C   UNL     1      -0.743   9.346   0.492  0.00  0.00    +0.000 A 
ATOM     10  C   UNL     1      -0.831   8.849   1.775  0.00  0.00    +0.000 A 
BRANCH   8  11
ATOM     11  O   UNL     1      -0.220  11.043  -0.985  0.00  0.00    +0.000 OA
ATOM     12  C   UNL     1      -1.313  11.850  -1.388  0.00  0.00    +0.000 C 
ENDBRANCH   8  11
ENDBRANCH   4   5
ENDBRANCH   1   3
BRANCH   1  13
ATOM     13  O   UNL     1       0.289   9.356   7.571  0.00  0.00    +0.000 OA
BRANCH  13  14
ATOM     14  C   UNL     1      -1.022   9.874   7.960  0.00  0.00    +0.000 C 
BRANCH  14  15
ATOM     15  C   UNL     1      -2.045   8.953   7.478  0.00  0.00    +0.000 C 
ATOM     16  C   UNL     1      -2.611   8.074   8.552  0.00  0.00    +0.000 C 
ENDBRANCH  14  15
BRANCH  14  17
ATOM     17  C   UNL     1      -1.250  11.256   7.378  0.00  0.00    +0.000 C 
BRANCH  17  18
ATOM     18  C   UNL     1      -2.542  11.198   6.533  0.00  0.00    +0.000 C 
BRANCH  18  20
ATOM     19  C   UNL     1      -3.396  11.427   4.228  0.00  0.00    +0.000 C 
ATOM     20  C   UNL     1      -2.471  12.043   5.300  0.00  0.00    +0.000 C 
ENDBRANCH  18  20
ENDBRANCH  17  18
ENDBRANCH  14  17
ENDBRANCH  13  14
ENDBRANCH   1  13
TORSDOF 9
ENDMDL
MODEL 8
REMARK VINA RESULT:      -3.6      1.399      2.079
REMARK  Name = bg33_3_ligand
REMARK  12 active torsions:
REMARK  status: ('A' for Active; 'I' for Inactive)
REMARK    1  A    between atoms: C_1  and  C_2
REMARK    2  A    between atoms: C_2  and  C_3
REMARK    3  A    between atoms: C_3  and  C_4
REMARK    4  A    between atoms: C_4  and  C_5
REMARK    5  A    between atoms: C_5  and  C_6
REMARK    6  A    between atoms: C_5  and  O_8
REMARK    7  A    between atoms: C_6  and  C_7
REMARK    8  A    between atoms: O_8  and  C_9
REMARK    9  A    between atoms: C_9  and  C_11
REMARK   10  A    between atoms: C_12  and  C_13
REMARK   11  A    between atoms: C_16  and  O_17
REMARK   12  A    between atoms: O_17  and  C_18
REMARK                            x       y       z     vdW  Elec       q    Type
REMARK                         _______ _______ _______ _____ _____    ______ ____
ROOT
ATOM      1  C   UNL     1      -3.869  11.569  -2.363  0.00  0.00    +0.000 C 
ATOM      2  O   UNL     1      -3.691  12.642  -2.893  0.00  0.00    +0.000 OA
ENDROOT
BRANCH   1   3
ATOM      3  C   UNL     1      -3.471  11.311  -0.872  0.00  0.00    +0.000 C 
ATOM      4  C   UNL     1      -2.477  10.432  -0.607  0.00  0.00    +0.000 C 
BRANCH   4   5
ATOM      5  C   UNL     1      -2.118  10.066   0.739  0.00  0.00    +0.000 A 
ATOM      6  C   UNL     1      -2.948  10.348   1.802  0.00  0.00    +0.000 A 
ATOM      7  C   UNL     1      -2.659   9.970   3.063  0.00  0.00    +0.000 A 
ATOM      8  C   UNL     1      -1.488   9.283   3.285  0.00  0.00    +0.000 A 
ATOM      9  C   UNL     1      -0.627   9.019   2.265  0.00  0.00    +0.000 A 
ATOM     10  C   UNL     1      -0.951   9.406   0.983  0.00  0.00    +0.000 A 
BRANCH   8  11
ATOM     11  O   UNL     1      -1.106   8.903   4.523  0.00  0.00    +0.000 OA
ATOM     12  C   UNL     1      -1.669   9.641   5.594  0.00  0.00    +0.000 C 
ENDBRANCH   8  11
ENDBRANCH   4   5
ENDBRANCH   1   3
BRANCH   1  13
ATOM     13  O   UNL     1      -4.366  10.649  -3.072  0.00  0.00    +0.000 OA
BRANCH  13  14
ATOM     14  C   UNL     1      -3.768  10.412  -4.386  0.00  0.00    +0.000 C 
BRANCH  14  15
ATOM     15  C   UNL     1      -4.816   9.971  -5.298  0.00  0.00    +0.000 C 
ATOM     16  C   UNL     1      -4.831  10.718  -6.598  0.00  0.00    +0.000 C 
ENDBRANCH  14  15
BRANCH  14  17
ATOM     17  C   UNL     1      -2.676   9.362  -4.300  0.00  0.00    +0.000 C 
BRANCH  17  18
ATOM     18  C   UNL     1      -1.374   9.999  -4.833  0.00  0.00    +0.000 C 
BRANCH  18  20
ATOM     19  C   UNL     1      -1.360   9.399  -7.228  0.00  0.00    +0.000 C 
ATOM     20  C   UNL     1      -0.689   9.154  -5.859  0.00  0.00    +0.000 C 
ENDBRANCH  18  20
ENDBRANCH  17  18
ENDBRANCH  14  17
ENDBRANCH  13  14
ENDBRANCH   1  13
TORSDOF 9
ENDMDL
MODEL 9
REMARK VINA RESULT:      -3.6      1.407      2.108
REMARK  Name = bg33_3_ligand
REMARK  12 active torsions:
REMARK  status: ('A' for Active; 'I' for Inactive)
REMARK    1  A    between atoms: C_1  and  C_2
REMARK    2  A    between atoms: C_2  and  C_3
REMARK    3  A    between atoms: C_3  and  C_4
REMARK    4  A    between atoms: C_4  and  C_5
REMARK    5  A    between atoms: C_5  and  C_6
REMARK    6  A    between atoms: C_5  and  O_8
REMARK    7  A    between atoms: C_6  and  C_7
REMARK    8  A    between atoms: O_8  and  C_9
REMARK    9  A    between atoms: C_9  and  C_11
REMARK   10  A    between atoms: C_12  and  C_13
REMARK   11  A    between atoms: C_16  and  O_17
REMARK   12  A    between atoms: O_17  and  C_18
REMARK                            x       y       z     vdW  Elec       q    Type
REMARK                         _______ _______ _______ _____ _____    ______ ____
ROOT
ATOM      1  C   UNL     1      -2.225  11.128  -3.546  0.00  0.00    +0.000 C 
ATOM      2  O   UNL     1      -3.207  11.116  -4.252  0.00  0.00    +0.000 OA
ENDROOT
BRANCH   1   3
ATOM      3  C   UNL     1      -2.179  10.357  -2.185  0.00  0.00    +0.000 C 
ATOM      4  C   UNL     1      -2.369  11.051  -1.039  0.00  0.00    +0.000 C 
BRANCH   4   5
ATOM      5  C   UNL     1      -2.245  10.435   0.257  0.00  0.00    +0.000 A 
ATOM      6  C   UNL     1      -1.259   9.508   0.517  0.00  0.00    +0.000 A 
ATOM      7  C   UNL     1      -1.090   8.956   1.735  0.00  0.00    +0.000 A 
ATOM      8  C   UNL     1      -1.943   9.336   2.746  0.00  0.00    +0.000 A 
ATOM      9  C   UNL     1      -2.951  10.220   2.517  0.00  0.00    +0.000 A 
ATOM     10  C   UNL     1      -3.095  10.779   1.265  0.00  0.00    +0.000 A 
BRANCH   8  11
ATOM     11  O   UNL     1      -1.867   8.802   3.983  0.00  0.00    +0.000 OA
ATOM     12  C   UNL     1      -1.739   9.729   5.047  0.00  0.00    +0.000 C 
ENDBRANCH   8  11
ENDBRANCH   4   5
ENDBRANCH   1   3
BRANCH   1  13
ATOM     13  O   UNL     1      -1.238  11.815  -3.938  0.00  0.00    +0.000 OA
BRANCH  13  14
ATOM     14  C   UNL     1       0.075  11.170  -3.935  0.00  0.00    +0.000 C 
BRANCH  14  15
ATOM     15  C   UNL     1       0.977  11.964  -3.109  0.00  0.00    +0.000 C 
ATOM     16  C   UNL     1       1.411  11.264  -1.856  0.00  0.00    +0.000 C 
ENDBRANCH  14  15
BRANCH  14  17
ATOM     17  C   UNL     1       0.623  11.057  -5.345  0.00  0.00    +0.000 C 
BRANCH  17  18
ATOM     18  C   UNL     1       0.700   9.554  -5.696  0.00  0.00    +0.000 C 
BRANCH  18  20
ATOM     19  C   UNL     1      -0.339   7.917  -7.223  0.00  0.00    +0.000 C 
ATOM     20  C   UNL     1      -0.610   8.993  -6.149  0.00  0.00    +0.000 C 
ENDBRANCH  18  20
ENDBRANCH  17  18
ENDBRANCH  14  17
ENDBRANCH  13  14
ENDBRANCH   1  13
TORSDOF 9
ENDMDL
