REMARK  Name = ox1_orig_f12_ligand
REMARK  5 active torsions:
REMARK  status: ('A' for Active; 'I' for Inactive)
REMARK    1  A    between atoms: C_1  and  O_2
REMARK    2  A    between atoms: O_2  and  C_3
REMARK    3  A    between atoms: C_6  and  C_7
REMARK    4  A    between atoms: C_7  and  C_9
REMARK    5  A    between atoms: C_15  and  O_16
REMARK                            x       y       z     vdW  Elec       q    Type
REMARK                         _______ _______ _______ _____ _____    ______ ____
ROOT
ATOM      1  C   UNL     1      -3.121  -4.567   1.762  0.00  0.00    +0.000 A 
ATOM      2  C   UNL     1      -2.470  -4.817   2.965  0.00  0.00    +0.000 A 
ATOM      3  C   UNL     1      -1.946  -3.764   3.701  0.00  0.00    +0.000 A 
ATOM      4  C   UNL     1      -2.055  -2.454   3.240  0.00  0.00    +0.000 A 
ATOM      5  C   UNL     1      -2.712  -2.210   2.039  0.00  0.00    +0.000 A 
ATOM      6  C   UNL     1      -3.243  -3.264   1.312  0.00  0.00    +0.000 A 
ENDROOT
BRANCH   1   8
ATOM      7  C   UNL     1      -4.350  -5.421  -0.121  0.00  0.00    +0.000 C 
ATOM      8  O   UNL     1      -3.621  -5.635   1.066  0.00  0.00    +0.000 OA
ENDBRANCH   1   8
BRANCH   4   9
ATOM      9  C   UNL     1      -1.497  -1.296   4.022  0.00  0.00    +0.000 C 
ATOM     10  O   UNL     1      -1.738  -0.174   3.627  0.00  0.00    +0.000 OA
BRANCH   9  11
ATOM     11  C   UNL     1      -0.707  -1.461   5.264  0.00  0.00    +0.000 A 
ATOM     12  C   UNL     1       0.293  -2.420   5.371  0.00  0.00    +0.000 A 
ATOM     13  C   UNL     1       1.009  -2.560   6.538  0.00  0.00    +0.000 A 
ATOM     14  C   UNL     1       0.739  -1.740   7.622  0.00  0.00    +0.000 A 
ATOM     15  C   UNL     1      -0.243  -0.764   7.526  0.00  0.00    +0.000 A 
ATOM     16  C   UNL     1      -0.960  -0.602   6.343  0.00  0.00    +0.000 A 
ENDBRANCH   9  11
ENDBRANCH   4   9
BRANCH   5  17
ATOM     17  O   UNL     1      -2.827  -0.931   1.602  0.00  0.00    +0.000 OA
ATOM     18  H   UNL     1      -3.292  -0.739   0.749  0.00  0.00    +0.000 HD
ENDBRANCH   5  17
TORSDOF 4
