REMARK  Name = /Users/cafierom/python_mac/peptidebuilder/runs/oxybenzone/dock/ox1_orig_f12_o3apo/ox1_orig_f12_o3apo_protein.pdb
REMARK                            x       y       z     vdW  Elec       q    Type
REMARK                         _______ _______ _______ _____ _____    ______ ____
ATOM      1  N   PHE A   1       6.165   9.802  -2.336  0.00  0.00    +0.000 NA
ATOM      2  CA  PHE A   1       4.912   9.212  -2.813  0.00  0.00    +0.000 C 
ATOM      3  C   PHE A   1       3.914   9.087  -1.667  0.00  0.00    +0.000 C 
ATOM      4  O   PHE A   1       4.279   9.159  -0.502  0.00  0.00    +0.000 OA
ATOM      5  CB  PHE A   1       5.170   7.833  -3.413  0.00  0.00    +0.000 C 
ATOM      6  CG  PHE A   1       5.754   6.851  -2.429  0.00  0.00    +0.000 A 
ATOM      7  CD1 PHE A   1       4.943   5.955  -1.769  0.00  0.00    +0.000 A 
ATOM      8  CD2 PHE A   1       7.114   6.836  -2.182  0.00  0.00    +0.000 A 
ATOM      9  CE1 PHE A   1       5.483   5.061  -0.869  0.00  0.00    +0.000 A 
ATOM     10  CE2 PHE A   1       7.655   5.944  -1.279  0.00  0.00    +0.000 A 
ATOM     11  CZ  PHE A   1       6.832   5.054  -0.620  0.00  0.00    +0.000 A 
ATOM     12  N   GLY A   2       2.664   8.948  -2.029  0.00  0.00    +0.000 N 
ATOM     13  CA  GLY A   2       1.641   8.825  -1.006  0.00  0.00    +0.000 C 
ATOM     14  C   GLY A   2       0.816   7.575  -1.162  0.00  0.00    +0.000 C 
ATOM     15  O   GLY A   2       0.870   6.674  -0.323  0.00  0.00    +0.000 OA
ATOM     16  N   ARG A   3       0.070   7.506  -2.221  0.00  0.00    +0.000 N 
ATOM     17  CA  ARG A   3      -0.782   6.345  -2.463  0.00  0.00    +0.000 C 
ATOM     18  C   ARG A   3      -0.670   5.888  -3.905  0.00  0.00    +0.000 C 
ATOM     19  O   ARG A   3      -1.664   5.633  -4.570  0.00  0.00    +0.000 OA
ATOM     20  CB  ARG A   3      -2.231   6.703  -2.133  0.00  0.00    +0.000 C 
ATOM     21  CG  ARG A   3      -2.497   6.761  -0.646  0.00  0.00    +0.000 C 
ATOM     22  CD  ARG A   3      -3.806   7.442  -0.339  0.00  0.00    +0.000 C 
ATOM     23  NE  ARG A   3      -3.618   8.860  -0.018  0.00  0.00    +0.000 NA
ATOM     24  CZ  ARG A   3      -3.654   9.835  -0.902  0.00  0.00    +0.000 C 
ATOM     25  NH1 ARG A   3      -3.901   9.602  -2.179  0.00  0.00    +0.000 N 
ATOM     26  NH2 ARG A   3      -3.471  11.086  -0.505  0.00  0.00    +0.000 NA
ATOM     27  N   GLY A   4       0.531   5.794  -4.375  0.00  0.00    +0.000 N 
ATOM     28  CA  GLY A   4       0.755   5.354  -5.741  0.00  0.00    +0.000 C 
ATOM     29  C   GLY A   4       0.395   3.901  -5.927  0.00  0.00    +0.000 C 
ATOM     30  O   GLY A   4      -0.514   3.563  -6.681  0.00  0.00    +0.000 OA
ATOM     31  N   LYS A   5       1.106   3.028  -5.231  0.00  0.00    +0.000 N 
ATOM     32  CA  LYS A   5       0.843   1.607  -5.302  0.00  0.00    +0.000 C 
ATOM     33  C   LYS A   5       0.673   1.052  -3.896  0.00  0.00    +0.000 C 
ATOM     34  O   LYS A   5       1.638   0.920  -3.155  0.00  0.00    +0.000 OA
ATOM     35  CB  LYS A   5       1.983   0.886  -6.012  0.00  0.00    +0.000 C 
ATOM     36  CG  LYS A   5       1.949   1.028  -7.514  0.00  0.00    +0.000 C 
ATOM     37  CD  LYS A   5       2.997   0.145  -8.162  0.00  0.00    +0.000 C 
ATOM     38  CE  LYS A   5       2.809   0.063  -9.654  0.00  0.00    +0.000 C 
ATOM     39  NZ  LYS A   5       3.770  -0.888 -10.271  0.00  0.00    +0.000 N 
ATOM     40  N   GLY A   6      -0.552   0.755  -3.561  0.00  0.00    +0.000 N 
ATOM     41  CA  GLY A   6      -0.810   0.219  -2.237  0.00  0.00    +0.000 C 
ATOM     42  C   GLY A   6      -2.050  -0.639  -2.233  0.00  0.00    +0.000 C 
ATOM     43  O   GLY A   6      -2.277  -1.410  -3.152  0.00  0.00    +0.000 OA
ATOM     44  N   GLY A   7      -2.809  -0.491  -1.181  0.00  0.00    +0.000 N 
ATOM     45  CA  GLY A   7      -4.017  -1.280  -1.089  0.00  0.00    +0.000 C 
ATOM     46  C   GLY A   7      -3.769  -2.688  -0.597  0.00  0.00    +0.000 C 
ATOM     47  O   GLY A   7      -4.521  -3.612  -0.904  0.00  0.00    +0.000 OA
ATOM     48  N   GLY A   8      -2.715  -2.841   0.180  0.00  0.00    +0.000 N 
ATOM     49  CA  GLY A   8      -2.399  -4.151   0.705  0.00  0.00    +0.000 C 
ATOM     50  C   GLY A   8      -3.103  -4.401   2.022  0.00  0.00    +0.000 C 
ATOM     51  O   GLY A   8      -4.184  -3.889   2.264  0.00  0.00    +0.000 OA
ATOM     52  N   ASP A   9      -2.470  -5.195   2.867  0.00  0.00    +0.000 N 
ATOM     53  CA  ASP A   9      -3.033  -5.522   4.163  0.00  0.00    +0.000 C 
ATOM     54  C   ASP A   9      -1.949  -5.505   5.229  0.00  0.00    +0.000 C 
ATOM     55  O   ASP A   9      -1.774  -6.454   5.980  0.00  0.00    +0.000 OA
ATOM     56  CB  ASP A   9      -3.698  -6.893   4.121  0.00  0.00    +0.000 C 
ATOM     57  CG  ASP A   9      -4.976  -6.895   3.325  0.00  0.00    +0.000 C 
ATOM     58  OD1 ASP A   9      -5.943  -6.253   3.758  0.00  0.00    +0.000 OA
ATOM     59  OD2 ASP A   9      -5.016  -7.544   2.269  0.00  0.00    +0.000 OA
ATOM     60  N   GLY A  10      -1.228  -4.404   5.287  0.00  0.00    +0.000 N 
ATOM     61  CA  GLY A  10      -0.161  -4.288   6.249  0.00  0.00    +0.000 C 
ATOM     62  C   GLY A  10       0.099  -2.857   6.629  0.00  0.00    +0.000 C 
ATOM     63  O   GLY A  10      -0.768  -2.002   6.502  0.00  0.00    +0.000 OA
ATOM     64  N   GLU A  11       1.306  -2.617   7.096  0.00  0.00    +0.000 N 
ATOM     65  CA  GLU A  11       1.673  -1.279   7.517  0.00  0.00    +0.000 C 
ATOM     66  C   GLU A  11       3.165  -1.059   7.310  0.00  0.00    +0.000 C 
ATOM     67  O   GLU A  11       3.980  -1.762   7.879  0.00  0.00    +0.000 OA
ATOM     68  CB  GLU A  11       1.312  -1.072   8.981  0.00  0.00    +0.000 C 
ATOM     69  CG  GLU A  11       1.527   0.350   9.454  0.00  0.00    +0.000 C 
ATOM     70  CD  GLU A  11       1.141   0.516  10.902  0.00  0.00    +0.000 C 
ATOM     71  OE1 GLU A  11       1.714  -0.187  11.747  0.00  0.00    +0.000 OA
ATOM     72  OE2 GLU A  11       0.256   1.331  11.198  0.00  0.00    +0.000 OA
ATOM     73  N   GLY A  12       3.502  -0.087   6.497  0.00  0.00    +0.000 N 
ATOM     74  CA  GLY A  12       4.891   0.219   6.247  0.00  0.00    +0.000 C 
ATOM     75  C   GLY A  12       5.283  -0.086   4.822  0.00  0.00    +0.000 C 
ATOM     76  O   GLY A  12       4.520   0.138   3.890  0.00  0.00    +0.000 OA
ATOM     77  N   ILE A  13       6.491  -0.599   4.685  0.00  0.00    +0.000 N 
ATOM     78  CA  ILE A  13       6.993  -0.911   3.356  0.00  0.00    +0.000 C 
ATOM     79  C   ILE A  13       6.446  -2.247   2.863  0.00  0.00    +0.000 C 
ATOM     80  O   ILE A  13       6.050  -2.379   1.711  0.00  0.00    +0.000 OA
ATOM     81  CB  ILE A  13       8.530  -0.966   3.346  0.00  0.00    +0.000 C 
ATOM     82  CG1 ILE A  13       9.102   0.317   3.938  0.00  0.00    +0.000 C 
ATOM     83  CG2 ILE A  13       9.035  -1.169   1.933  0.00  0.00    +0.000 C 
ATOM     84  CD1 ILE A  13      10.584   0.240   4.196  0.00  0.00    +0.000 C 
ATOM     85  N   GLY A  14       6.451  -3.212   3.734  0.00  0.00    +0.000 N 
ATOM     86  CA  GLY A  14       5.976  -4.535   3.382  0.00  0.00    +0.000 C 
ATOM     87  C   GLY A  14       4.556  -4.517   2.860  0.00  0.00    +0.000 C 
ATOM     88  O   GLY A  14       4.317  -4.715   1.673  0.00  0.00    +0.000 OA
ATOM     89  N   GLY A  15       3.645  -4.287   3.748  0.00  0.00    +0.000 N 
ATOM     90  CA  GLY A  15       2.248  -4.273   3.357  0.00  0.00    +0.000 C 
ATOM     91  C   GLY A  15       1.628  -5.644   3.494  0.00  0.00    +0.000 C 
ATOM     92  O   GLY A  15       1.222  -6.054   4.580  0.00  0.00    +0.000 OA
ATOM     93  N   GLY A  16       1.547  -6.336   2.403  0.00  0.00    +0.000 N 
ATOM     94  CA  GLY A  16       0.976  -7.660   2.423  0.00  0.00    +0.000 C 
ATOM     95  C   GLY A  16       0.360  -8.021   1.093  0.00  0.00    +0.000 C 
ATOM     96  O   GLY A  16       0.786  -7.544   0.048  0.00  0.00    +0.000 OA
ATOM     97  N   LEU A  17      -0.620  -8.886   1.149  0.00  0.00    +0.000 N 
ATOM     98  CA  LEU A  17      -1.284  -9.333  -0.055  0.00  0.00    +0.000 C 
ATOM     99  C   LEU A  17      -2.592  -8.590  -0.256  0.00  0.00    +0.000 C 
ATOM    100  O   LEU A  17      -3.145  -8.023   0.676  0.00  0.00    +0.000 OA
ATOM    101  CB  LEU A  17      -1.559 -10.833   0.001  0.00  0.00    +0.000 C 
ATOM    102  CG  LEU A  17      -0.345 -11.740  -0.203  0.00  0.00    +0.000 C 
ATOM    103  CD1 LEU A  17       0.515 -11.770   1.035  0.00  0.00    +0.000 C 
ATOM    104  CD2 LEU A  17      -0.795 -13.146  -0.579  0.00  0.00    +0.000 C 
ATOM    105  N   GLY A  18      -3.088  -8.605  -1.479  0.00  0.00    +0.000 N 
ATOM    106  CA  GLY A  18      -4.326  -7.935  -1.799  0.00  0.00    +0.000 C 
ATOM    107  C   GLY A  18      -4.081  -6.615  -2.489  0.00  0.00    +0.000 C 
ATOM    108  O   GLY A  18      -2.954  -6.249  -2.791  0.00  0.00    +0.000 OA
ATOM    109  N   GLY A  19      -5.151  -5.898  -2.731  0.00  0.00    +0.000 N 
ATOM    110  CA  GLY A  19      -5.033  -4.614  -3.381  0.00  0.00    +0.000 C 
ATOM    111  C   GLY A  19      -4.485  -4.736  -4.789  0.00  0.00    +0.000 C 
ATOM    112  O   GLY A  19      -4.577  -5.776  -5.419  0.00  0.00    +0.000 OA
ATOM    113  N   SER A  20      -3.908  -3.653  -5.255  0.00  0.00    +0.000 N 
ATOM    114  CA  SER A  20      -3.351  -3.631  -6.594  0.00  0.00    +0.000 C 
ATOM    115  C   SER A  20      -1.838  -3.517  -6.565  0.00  0.00    +0.000 C 
ATOM    116  O   SER A  20      -1.226  -3.033  -7.515  0.00  0.00    +0.000 OA
ATOM    117  CB  SER A  20      -3.942  -2.471  -7.395  0.00  0.00    +0.000 C 
ATOM    118  OG  SER A  20      -5.356  -2.561  -7.441  0.00  0.00    +0.000 OA
ATOM    119  N   GLY A  21      -1.260  -3.966  -5.487  0.00  0.00    +0.000 N 
ATOM    120  CA  GLY A  21       0.180  -3.884  -5.347  0.00  0.00    +0.000 C 
ATOM    121  C   GLY A  21       0.667  -4.371  -3.999  0.00  0.00    +0.000 C 
ATOM    122  O   GLY A  21       1.654  -5.098  -3.908  0.00  0.00    +0.000 OA
ATOM    123  N   GLY A  22      -0.033  -3.956  -2.985  0.00  0.00    +0.000 N 
ATOM    124  CA  GLY A  22       0.345  -4.369  -1.649  0.00  0.00    +0.000 C 
ATOM    125  C   GLY A  22       1.714  -3.873  -1.234  0.00  0.00    +0.000 C 
ATOM    126  O   GLY A  22       2.509  -4.619  -0.659  0.00  0.00    +0.000 OA
ATOM    127  N   TRP A  23       1.988  -2.630  -1.524  0.00  0.00    +0.000 N 
ATOM    128  CA  TRP A  23       3.269  -2.040  -1.169  0.00  0.00    +0.000 C 
ATOM    129  C   TRP A  23       3.296  -1.586   0.277  0.00  0.00    +0.000 C 
ATOM    130  O   TRP A  23       4.334  -1.167   0.780  0.00  0.00    +0.000 OA
ATOM    131  CB  TRP A  23       3.591  -0.874  -2.086  0.00  0.00    +0.000 C 
ATOM    132  CG  TRP A  23       3.924  -1.311  -3.473  0.00  0.00    +0.000 C 
ATOM    133  CD1 TRP A  23       3.063  -1.458  -4.515  0.00  0.00    +0.000 C 
ATOM    134  CD2 TRP A  23       5.214  -1.685  -3.972  0.00  0.00    +0.000 C 
ATOM    135  NE1 TRP A  23       3.736  -1.900  -5.628  0.00  0.00    +0.000 NA
ATOM    136  CE2 TRP A  23       5.056  -2.043  -5.321  0.00  0.00    +0.000 C 
ATOM    137  CE3 TRP A  23       6.490  -1.742  -3.400  0.00  0.00    +0.000 C 
ATOM    138  CZ2 TRP A  23       6.127  -2.454  -6.109  0.00  0.00    +0.000 C 
ATOM    139  CZ3 TRP A  23       7.546  -2.153  -4.182  0.00  0.00    +0.000 C 
ATOM    140  CH2 TRP A  23       7.364  -2.508  -5.526  0.00  0.00    +0.000 C 
ATOM    141  N   GLY A  24       2.138  -1.631   0.924  0.00  0.00    +0.000 N 
ATOM    142  CA  GLY A  24       2.066  -1.230   2.308  0.00  0.00    +0.000 C 
ATOM    143  C   GLY A  24       1.861   0.256   2.472  0.00  0.00    +0.000 C 
ATOM    144  O   GLY A  24       2.722   1.047   2.132  0.00  0.00    +0.000 OA
ATOM    145  N   ASP A  25       0.702   0.602   3.021  0.00  0.00    +0.000 N 
ATOM    146  CA  ASP A  25       0.376   1.999   3.245  0.00  0.00    +0.000 C 
ATOM    147  C   ASP A  25      -0.890   2.134   4.077  0.00  0.00    +0.000 C 
ATOM    148  O   ASP A  25      -1.753   1.252   4.014  0.00  0.00    +0.000 OA
ATOM    149  CB  ASP A  25       0.184   2.715   1.918  0.00  0.00    +0.000 C 
ATOM    150  CG  ASP A  25       0.350   4.215   2.052  0.00  0.00    +0.000 C 
ATOM    151  OD1 ASP A  25       0.563   4.699   3.175  0.00  0.00    +0.000 OA
ATOM    152  OD2 ASP A  25       0.267   4.897   1.024  0.00  0.00    +0.000 OA
ATOM    153  H   PHE A   1       6.822   9.879  -3.113  0.00  0.00    +0.000 HD
ATOM    154  H   PHE A   1       6.566   9.208  -1.610  0.00  0.00    +0.000 HD
ATOM    155  H   GLY A   2       2.420   8.927  -2.983  0.00  0.00    +0.000 HD
ATOM    156  H   ARG A   3       0.078   8.246  -2.870  0.00  0.00    +0.000 HD
ATOM    157  H   ARG A   3      -3.922  10.349  -2.820  0.00  0.00    +0.000 HD
ATOM    158  H   ARG A   3      -4.064   8.682  -2.489  0.00  0.00    +0.000 HD
ATOM    159  H   ARG A   3      -3.497  11.819  -1.161  0.00  0.00    +0.000 HD
ATOM    160  H   ARG A   3      -3.309  11.282   0.446  0.00  0.00    +0.000 HD
ATOM    161  H   ARG A   3      -3.411  10.160  -0.835  0.00  0.00    +0.000 HD
ATOM    162  H   GLY A   4       1.299   6.022  -3.803  0.00  0.00    +0.000 HD
ATOM    163  H   LYS A   5       1.832   3.354  -4.651  0.00  0.00    +0.000 HD
ATOM    164  H   LYS A   5       3.619  -1.821  -9.887  0.00  0.00    +0.000 HD
ATOM    165  H   LYS A   5       4.723  -0.587 -10.069  0.00  0.00    +0.000 HD
ATOM    166  H   LYS A   5       3.627  -0.909 -11.281  0.00  0.00    +0.000 HD
ATOM    167  H   GLY A   6      -1.291   0.892  -4.197  0.00  0.00    +0.000 HD
ATOM    168  H   GLY A   7      -2.565   0.142  -0.468  0.00  0.00    +0.000 HD
ATOM    169  H   GLY A   8      -2.147  -2.068   0.401  0.00  0.00    +0.000 HD
ATOM    170  H   ASP A   9      -1.598  -5.573   2.612  0.00  0.00    +0.000 HD
ATOM    171  H   ASP A   9      -5.867  -5.777   4.561  0.00  0.00    +0.000 HD
ATOM    172  H   GLY A  10      -1.418  -3.659   4.672  0.00  0.00    +0.000 HD
ATOM    173  H   GLU A  11       1.962  -3.349   7.160  0.00  0.00    +0.000 HD
ATOM    174  H   GLU A  11       2.379  -0.792  11.481  0.00  0.00    +0.000 HD
ATOM    175  H   GLY A  12       2.800   0.440   6.052  0.00  0.00    +0.000 HD
ATOM    176  H   ILE A  13       7.049  -0.770   5.478  0.00  0.00    +0.000 HD
ATOM    177  H   GLY A  14       6.782  -3.042   4.645  0.00  0.00    +0.000 HD
ATOM    178  H   GLY A  15       3.898  -4.122   4.685  0.00  0.00    +0.000 HD
ATOM    179  H   GLY A  16       1.877  -5.957   1.556  0.00  0.00    +0.000 HD
ATOM    180  H   LEU A  17      -0.909  -9.237   2.022  0.00  0.00    +0.000 HD
ATOM    181  H   GLY A  18      -2.603  -9.084  -2.189  0.00  0.00    +0.000 HD
ATOM    182  H   GLY A  19      -6.038  -6.236  -2.469  0.00  0.00    +0.000 HD
ATOM    183  H   SER A  20      -3.853  -2.848  -4.690  0.00  0.00    +0.000 HD
ATOM    184  H   SER A  20      -5.712  -2.522  -6.540  0.00  0.00    +0.000 HD
ATOM    185  H   GLY A  21      -1.802  -4.361  -4.767  0.00  0.00    +0.000 HD
ATOM    186  H   GLY A  22      -0.811  -3.368  -3.124  0.00  0.00    +0.000 HD
ATOM    187  H   TRP A  23       1.316  -2.083  -1.991  0.00  0.00    +0.000 HD
ATOM    188  H   GLY A  24       1.327  -1.939   0.459  0.00  0.00    +0.000 HD
ATOM    189  H   ASP A  25       0.057  -0.096   3.279  0.00  0.00    +0.000 HD
ATOM    190  H   ASP A  25       0.617   4.139   3.924  0.00  0.00    +0.000 HD
TER 
