MODEL 1
REMARK VINA RESULT:      -6.1      0.000      0.000
REMARK  Name = ox1_orig_f12_ligand
REMARK  5 active torsions:
REMARK  status: ('A' for Active; 'I' for Inactive)
REMARK    1  A    between atoms: C_1  and  O_2
REMARK    2  A    between atoms: O_2  and  C_3
REMARK    3  A    between atoms: C_6  and  C_7
REMARK    4  A    between atoms: C_7  and  C_9
REMARK    5  A    between atoms: C_15  and  O_16
REMARK                            x       y       z     vdW  Elec       q    Type
REMARK                         _______ _______ _______ _____ _____    ______ ____
ROOT
ATOM      1  C   UNL     1       7.983   3.406   2.850  0.00  0.00    +0.000 A 
ATOM      2  C   UNL     1       8.975   3.232   1.892  0.00  0.00    +0.000 A 
ATOM      3  C   UNL     1       8.711   2.491   0.749  0.00  0.00    +0.000 A 
ATOM      4  C   UNL     1       7.462   1.907   0.555  0.00  0.00    +0.000 A 
ATOM      5  C   UNL     1       6.472   2.089   1.515  0.00  0.00    +0.000 A 
ATOM      6  C   UNL     1       6.736   2.838   2.651  0.00  0.00    +0.000 A 
ENDROOT
BRANCH   1   8
ATOM      7  C   UNL     1       7.258   4.546   4.840  0.00  0.00    +0.000 C 
ATOM      8  O   UNL     1       8.286   4.141   3.965  0.00  0.00    +0.000 OA
ENDBRANCH   1   8
BRANCH   4   9
ATOM      9  C   UNL     1       7.152   1.101  -0.677  0.00  0.00    +0.000 C 
ATOM     10  O   UNL     1       7.142  -0.108  -0.579  0.00  0.00    +0.000 OA
BRANCH   9  11
ATOM     11  C   UNL     1       6.822   1.714  -1.985  0.00  0.00    +0.000 A 
ATOM     12  C   UNL     1       7.813   2.115  -2.874  0.00  0.00    +0.000 A 
ATOM     13  C   UNL     1       7.483   2.689  -4.080  0.00  0.00    +0.000 A 
ATOM     14  C   UNL     1       6.153   2.871  -4.423  0.00  0.00    +0.000 A 
ATOM     15  C   UNL     1       5.150   2.459  -3.556  0.00  0.00    +0.000 A 
ATOM     16  C   UNL     1       5.474   1.860  -2.341  0.00  0.00    +0.000 A 
ENDBRANCH   9  11
ENDBRANCH   4   9
BRANCH   5  17
ATOM     17  O   UNL     1       5.253   1.529   1.315  0.00  0.00    +0.000 OA
ATOM     18  H   UNL     1       4.810   1.608   0.432  0.00  0.00    +0.000 HD
ENDBRANCH   5  17
TORSDOF 4
ENDMDL
MODEL 2
REMARK VINA RESULT:      -5.5      0.984      2.029
REMARK  Name = ox1_orig_f12_ligand
REMARK  5 active torsions:
REMARK  status: ('A' for Active; 'I' for Inactive)
REMARK    1  A    between atoms: C_1  and  O_2
REMARK    2  A    between atoms: O_2  and  C_3
REMARK    3  A    between atoms: C_6  and  C_7
REMARK    4  A    between atoms: C_7  and  C_9
REMARK    5  A    between atoms: C_15  and  O_16
REMARK                            x       y       z     vdW  Elec       q    Type
REMARK                         _______ _______ _______ _____ _____    ______ ____
ROOT
ATOM      1  C   UNL     1       7.221   3.282   2.953  0.00  0.00    +0.000 A 
ATOM      2  C   UNL     1       5.979   2.813   2.539  0.00  0.00    +0.000 A 
ATOM      3  C   UNL     1       5.869   2.094   1.357  0.00  0.00    +0.000 A 
ATOM      4  C   UNL     1       6.993   1.846   0.572  0.00  0.00    +0.000 A 
ATOM      5  C   UNL     1       8.232   2.313   0.994  0.00  0.00    +0.000 A 
ATOM      6  C   UNL     1       8.339   3.022   2.180  0.00  0.00    +0.000 A 
ENDROOT
BRANCH   1   8
ATOM      7  C   UNL     1       6.984   3.355   5.345  0.00  0.00    +0.000 C 
ATOM      8  O   UNL     1       7.284   3.990   4.124  0.00  0.00    +0.000 OA
ENDBRANCH   1   8
BRANCH   4   9
ATOM      9  C   UNL     1       6.898   1.066  -0.712  0.00  0.00    +0.000 C 
ATOM     10  O   UNL     1       7.134  -0.124  -0.673  0.00  0.00    +0.000 OA
BRANCH   9  11
ATOM     11  C   UNL     1       6.495   1.672  -2.002  0.00  0.00    +0.000 A 
ATOM     12  C   UNL     1       5.166   1.961  -2.289  0.00  0.00    +0.000 A 
ATOM     13  C   UNL     1       4.815   2.517  -3.498  0.00  0.00    +0.000 A 
ATOM     14  C   UNL     1       5.788   2.798  -4.443  0.00  0.00    +0.000 A 
ATOM     15  C   UNL     1       7.122   2.534  -4.165  0.00  0.00    +0.000 A 
ATOM     16  C   UNL     1       7.490   1.989  -2.938  0.00  0.00    +0.000 A 
ENDBRANCH   9  11
ENDBRANCH   4   9
BRANCH   5  17
ATOM     17  O   UNL     1       9.325   2.056   0.232  0.00  0.00    +0.000 OA
ATOM     18  H   UNL     1      10.189   2.490   0.444  0.00  0.00    +0.000 HD
ENDBRANCH   5  17
TORSDOF 4
ENDMDL
MODEL 3
REMARK VINA RESULT:      -5.3      3.044      4.523
REMARK  Name = ox1_orig_f12_ligand
REMARK  5 active torsions:
REMARK  status: ('A' for Active; 'I' for Inactive)
REMARK    1  A    between atoms: C_1  and  O_2
REMARK    2  A    between atoms: O_2  and  C_3
REMARK    3  A    between atoms: C_6  and  C_7
REMARK    4  A    between atoms: C_7  and  C_9
REMARK    5  A    between atoms: C_15  and  O_16
REMARK                            x       y       z     vdW  Elec       q    Type
REMARK                         _______ _______ _______ _____ _____    ______ ____
ROOT
ATOM      1  C   UNL     1       4.407   6.832   2.921  0.00  0.00    +0.000 A 
ATOM      2  C   UNL     1       5.787   6.874   2.757  0.00  0.00    +0.000 A 
ATOM      3  C   UNL     1       6.521   5.697   2.769  0.00  0.00    +0.000 A 
ATOM      4  C   UNL     1       5.890   4.469   2.957  0.00  0.00    +0.000 A 
ATOM      5  C   UNL     1       4.509   4.434   3.116  0.00  0.00    +0.000 A 
ATOM      6  C   UNL     1       3.778   5.611   3.092  0.00  0.00    +0.000 A 
ENDROOT
BRANCH   1   8
ATOM      7  C   UNL     1       2.340   8.026   2.618  0.00  0.00    +0.000 C 
ATOM      8  O   UNL     1       3.720   8.017   2.905  0.00  0.00    +0.000 OA
ENDBRANCH   1   8
BRANCH   4   9
ATOM      9  C   UNL     1       6.665   3.180   2.972  0.00  0.00    +0.000 C 
ATOM     10  O   UNL     1       6.843   2.635   4.042  0.00  0.00    +0.000 OA
BRANCH   9  11
ATOM     11  C   UNL     1       7.183   2.530   1.745  0.00  0.00    +0.000 A 
ATOM     12  C   UNL     1       8.512   2.657   1.358  0.00  0.00    +0.000 A 
ATOM     13  C   UNL     1       8.968   2.050   0.210  0.00  0.00    +0.000 A 
ATOM     14  C   UNL     1       8.103   1.302  -0.573  0.00  0.00    +0.000 A 
ATOM     15  C   UNL     1       6.778   1.149  -0.190  0.00  0.00    +0.000 A 
ATOM     16  C   UNL     1       6.311   1.744   0.980  0.00  0.00    +0.000 A 
ENDBRANCH   9  11
ENDBRANCH   4   9
BRANCH   5  17
ATOM     17  O   UNL     1       3.898   3.235   3.285  0.00  0.00    +0.000 OA
ATOM     18  H   UNL     1       3.717   2.896   4.198  0.00  0.00    +0.000 HD
ENDBRANCH   5  17
TORSDOF 4
ENDMDL
MODEL 4
REMARK VINA RESULT:      -5.3      2.776      4.601
REMARK  Name = ox1_orig_f12_ligand
REMARK  5 active torsions:
REMARK  status: ('A' for Active; 'I' for Inactive)
REMARK    1  A    between atoms: C_1  and  O_2
REMARK    2  A    between atoms: O_2  and  C_3
REMARK    3  A    between atoms: C_6  and  C_7
REMARK    4  A    between atoms: C_7  and  C_9
REMARK    5  A    between atoms: C_15  and  O_16
REMARK                            x       y       z     vdW  Elec       q    Type
REMARK                         _______ _______ _______ _____ _____    ______ ____
ROOT
ATOM      1  C   UNL     1       6.638   1.479  -1.065  0.00  0.00    +0.000 A 
ATOM      2  C   UNL     1       7.728   1.564  -1.923  0.00  0.00    +0.000 A 
ATOM      3  C   UNL     1       7.543   1.950  -3.242  0.00  0.00    +0.000 A 
ATOM      4  C   UNL     1       6.269   2.244  -3.723  0.00  0.00    +0.000 A 
ATOM      5  C   UNL     1       5.183   2.162  -2.858  0.00  0.00    +0.000 A 
ATOM      6  C   UNL     1       5.374   1.786  -1.538  0.00  0.00    +0.000 A 
ENDROOT
BRANCH   1   8
ATOM      7  C   UNL     1       6.293   1.820   1.291  0.00  0.00    +0.000 C 
ATOM      8  O   UNL     1       6.864   1.092   0.229  0.00  0.00    +0.000 OA
ENDBRANCH   1   8
BRANCH   4   9
ATOM      9  C   UNL     1       6.044   2.667  -5.149  0.00  0.00    +0.000 C 
ATOM     10  O   UNL     1       5.674   1.825  -5.941  0.00  0.00    +0.000 OA
BRANCH   9  11
ATOM     11  C   UNL     1       6.213   4.062  -5.618  0.00  0.00    +0.000 A 
ATOM     12  C   UNL     1       7.386   4.772  -5.388  0.00  0.00    +0.000 A 
ATOM     13  C   UNL     1       7.518   6.069  -5.827  0.00  0.00    +0.000 A 
ATOM     14  C   UNL     1       6.477   6.683  -6.507  0.00  0.00    +0.000 A 
ATOM     15  C   UNL     1       5.307   5.982  -6.761  0.00  0.00    +0.000 A 
ATOM     16  C   UNL     1       5.171   4.662  -6.338  0.00  0.00    +0.000 A 
ENDBRANCH   9  11
ENDBRANCH   4   9
BRANCH   5  17
ATOM     17  O   UNL     1       3.946   2.463  -3.328  0.00  0.00    +0.000 OA
ATOM     18  H   UNL     1       3.810   2.623  -4.295  0.00  0.00    +0.000 HD
ENDBRANCH   5  17
TORSDOF 4
ENDMDL
MODEL 5
REMARK VINA RESULT:      -5.2      2.151      5.500
REMARK  Name = ox1_orig_f12_ligand
REMARK  5 active torsions:
REMARK  status: ('A' for Active; 'I' for Inactive)
REMARK    1  A    between atoms: C_1  and  O_2
REMARK    2  A    between atoms: O_2  and  C_3
REMARK    3  A    between atoms: C_6  and  C_7
REMARK    4  A    between atoms: C_7  and  C_9
REMARK    5  A    between atoms: C_15  and  O_16
REMARK                            x       y       z     vdW  Elec       q    Type
REMARK                         _______ _______ _______ _____ _____    ______ ____
ROOT
ATOM      1  C   UNL     1       8.430   1.281  -0.547  0.00  0.00    +0.000 A 
ATOM      2  C   UNL     1       9.173   2.173   0.217  0.00  0.00    +0.000 A 
ATOM      3  C   UNL     1       8.597   2.789   1.319  0.00  0.00    +0.000 A 
ATOM      4  C   UNL     1       7.272   2.532   1.662  0.00  0.00    +0.000 A 
ATOM      5  C   UNL     1       6.535   1.634   0.896  0.00  0.00    +0.000 A 
ATOM      6  C   UNL     1       7.118   1.013  -0.197  0.00  0.00    +0.000 A 
ENDROOT
BRANCH   1   8
ATOM      7  C   UNL     1       8.926   1.291  -2.901  0.00  0.00    +0.000 C 
ATOM      8  O   UNL     1       9.036   0.697  -1.627  0.00  0.00    +0.000 OA
ENDBRANCH   1   8
BRANCH   4   9
ATOM      9  C   UNL     1       6.626   3.186   2.853  0.00  0.00    +0.000 C 
ATOM     10  O   UNL     1       6.725   2.632   3.929  0.00  0.00    +0.000 OA
BRANCH   9  11
ATOM     11  C   UNL     1       5.916   4.483   2.781  0.00  0.00    +0.000 A 
ATOM     12  C   UNL     1       4.535   4.553   2.645  0.00  0.00    +0.000 A 
ATOM     13  C   UNL     1       3.897   5.770   2.572  0.00  0.00    +0.000 A 
ATOM     14  C   UNL     1       4.631   6.944   2.636  0.00  0.00    +0.000 A 
ATOM     15  C   UNL     1       6.009   6.893   2.792  0.00  0.00    +0.000 A 
ATOM     16  C   UNL     1       6.661   5.666   2.885  0.00  0.00    +0.000 A 
ENDBRANCH   9  11
ENDBRANCH   4   9
BRANCH   5  17
ATOM     17  O   UNL     1       5.249   1.377   1.243  0.00  0.00    +0.000 OA
ATOM     18  H   UNL     1       4.814   1.907   1.958  0.00  0.00    +0.000 HD
ENDBRANCH   5  17
TORSDOF 4
ENDMDL
MODEL 6
REMARK VINA RESULT:      -5.2      2.496      4.719
REMARK  Name = ox1_orig_f12_ligand
REMARK  5 active torsions:
REMARK  status: ('A' for Active; 'I' for Inactive)
REMARK    1  A    between atoms: C_1  and  O_2
REMARK    2  A    between atoms: O_2  and  C_3
REMARK    3  A    between atoms: C_6  and  C_7
REMARK    4  A    between atoms: C_7  and  C_9
REMARK    5  A    between atoms: C_15  and  O_16
REMARK                            x       y       z     vdW  Elec       q    Type
REMARK                         _______ _______ _______ _____ _____    ______ ____
ROOT
ATOM      1  C   UNL     1       6.701   1.384  -0.830  0.00  0.00    +0.000 A 
ATOM      2  C   UNL     1       5.443   1.740  -1.304  0.00  0.00    +0.000 A 
ATOM      3  C   UNL     1       5.258   1.993  -2.655  0.00  0.00    +0.000 A 
ATOM      4  C   UNL     1       6.325   1.906  -3.545  0.00  0.00    +0.000 A 
ATOM      5  C   UNL     1       7.580   1.544  -3.067  0.00  0.00    +0.000 A 
ATOM      6  C   UNL     1       7.758   1.282  -1.718  0.00  0.00    +0.000 A 
ENDROOT
BRANCH   1   8
ATOM      7  C   UNL     1       6.231   2.005   1.445  0.00  0.00    +0.000 C 
ATOM      8  O   UNL     1       6.841   1.145   0.511  0.00  0.00    +0.000 OA
ENDBRANCH   1   8
BRANCH   4   9
ATOM      9  C   UNL     1       6.147   2.174  -5.015  0.00  0.00    +0.000 C 
ATOM     10  O   UNL     1       6.229   1.234  -5.779  0.00  0.00    +0.000 OA
BRANCH   9  11
ATOM     11  C   UNL     1       5.840   3.514  -5.565  0.00  0.00    +0.000 A 
ATOM     12  C   UNL     1       4.617   3.796  -6.160  0.00  0.00    +0.000 A 
ATOM     13  C   UNL     1       4.356   5.048  -6.671  0.00  0.00    +0.000 A 
ATOM     14  C   UNL     1       5.317   6.044  -6.593  0.00  0.00    +0.000 A 
ATOM     15  C   UNL     1       6.537   5.785  -5.984  0.00  0.00    +0.000 A 
ATOM     16  C   UNL     1       6.802   4.527  -5.448  0.00  0.00    +0.000 A 
ENDBRANCH   9  11
ENDBRANCH   4   9
BRANCH   5  17
ATOM     17  O   UNL     1       8.613   1.447  -3.941  0.00  0.00    +0.000 OA
ATOM     18  H   UNL     1       9.104   0.592  -4.035  0.00  0.00    +0.000 HD
ENDBRANCH   5  17
TORSDOF 4
ENDMDL
MODEL 7
REMARK VINA RESULT:      -4.6      2.186      5.755
REMARK  Name = ox1_orig_f12_ligand
REMARK  5 active torsions:
REMARK  status: ('A' for Active; 'I' for Inactive)
REMARK    1  A    between atoms: C_1  and  O_2
REMARK    2  A    between atoms: O_2  and  C_3
REMARK    3  A    between atoms: C_6  and  C_7
REMARK    4  A    between atoms: C_7  and  C_9
REMARK    5  A    between atoms: C_15  and  O_16
REMARK                            x       y       z     vdW  Elec       q    Type
REMARK                         _______ _______ _______ _____ _____    ______ ____
ROOT
ATOM      1  C   UNL     1       8.024   1.230  -0.714  0.00  0.00    +0.000 A 
ATOM      2  C   UNL     1       6.687   1.082  -0.363  0.00  0.00    +0.000 A 
ATOM      3  C   UNL     1       6.200   1.694   0.783  0.00  0.00    +0.000 A 
ATOM      4  C   UNL     1       7.043   2.449   1.596  0.00  0.00    +0.000 A 
ATOM      5  C   UNL     1       8.378   2.598   1.236  0.00  0.00    +0.000 A 
ATOM      6  C   UNL     1       8.858   1.993   0.085  0.00  0.00    +0.000 A 
ENDROOT
BRANCH   1   8
ATOM      7  C   UNL     1       9.330   1.283  -2.733  0.00  0.00    +0.000 C 
ATOM      8  O   UNL     1       8.465   0.606  -1.851  0.00  0.00    +0.000 OA
ENDBRANCH   1   8
BRANCH   4   9
ATOM      9  C   UNL     1       6.536   3.125   2.841  0.00  0.00    +0.000 C 
ATOM     10  O   UNL     1       6.761   2.593   3.909  0.00  0.00    +0.000 OA
BRANCH   9  11
ATOM     11  C   UNL     1       5.816   4.419   2.827  0.00  0.00    +0.000 A 
ATOM     12  C   UNL     1       4.438   4.486   2.661  0.00  0.00    +0.000 A 
ATOM     13  C   UNL     1       3.792   5.701   2.644  0.00  0.00    +0.000 A 
ATOM     14  C   UNL     1       4.513   6.875   2.794  0.00  0.00    +0.000 A 
ATOM     15  C   UNL     1       5.888   6.825   2.980  0.00  0.00    +0.000 A 
ATOM     16  C   UNL     1       6.549   5.600   3.018  0.00  0.00    +0.000 A 
ENDBRANCH   9  11
ENDBRANCH   4   9
BRANCH   5  17
ATOM     17  O   UNL     1       9.190   3.346   2.024  0.00  0.00    +0.000 OA
ATOM     18  H   UNL     1       9.906   3.896   1.617  0.00  0.00    +0.000 HD
ENDBRANCH   5  17
TORSDOF 4
ENDMDL
MODEL 8
REMARK VINA RESULT:      -4.5      3.572      6.099
REMARK  Name = ox1_orig_f12_ligand
REMARK  5 active torsions:
REMARK  status: ('A' for Active; 'I' for Inactive)
REMARK    1  A    between atoms: C_1  and  O_2
REMARK    2  A    between atoms: O_2  and  C_3
REMARK    3  A    between atoms: C_6  and  C_7
REMARK    4  A    between atoms: C_7  and  C_9
REMARK    5  A    between atoms: C_15  and  O_16
REMARK                            x       y       z     vdW  Elec       q    Type
REMARK                         _______ _______ _______ _____ _____    ______ ____
ROOT
ATOM      1  C   UNL     1       6.019   1.839  -2.353  0.00  0.00    +0.000 A 
ATOM      2  C   UNL     1       4.777   2.302  -2.775  0.00  0.00    +0.000 A 
ATOM      3  C   UNL     1       4.633   2.836  -4.047  0.00  0.00    +0.000 A 
ATOM      4  C   UNL     1       5.726   2.926  -4.906  0.00  0.00    +0.000 A 
ATOM      5  C   UNL     1       6.964   2.456  -4.480  0.00  0.00    +0.000 A 
ATOM      6  C   UNL     1       7.101   1.914  -3.212  0.00  0.00    +0.000 A 
ENDROOT
BRANCH   1   8
ATOM      7  C   UNL     1       7.379   1.221  -0.468  0.00  0.00    +0.000 C 
ATOM      8  O   UNL     1       6.118   1.322  -1.089  0.00  0.00    +0.000 OA
ENDBRANCH   1   8
BRANCH   4   9
ATOM      9  C   UNL     1       5.594   3.499  -6.291  0.00  0.00    +0.000 C 
ATOM     10  O   UNL     1       5.529   2.724  -7.223  0.00  0.00    +0.000 OA
BRANCH   9  11
ATOM     11  C   UNL     1       5.499   4.952  -6.563  0.00  0.00    +0.000 A 
ATOM     12  C   UNL     1       6.619   5.774  -6.535  0.00  0.00    +0.000 A 
ATOM     13  C   UNL     1       6.506   7.123  -6.783  0.00  0.00    +0.000 A 
ATOM     14  C   UNL     1       5.268   7.676  -7.066  0.00  0.00    +0.000 A 
ATOM     15  C   UNL     1       4.141   6.867  -7.117  0.00  0.00    +0.000 A 
ATOM     16  C   UNL     1       4.249   5.497  -6.886  0.00  0.00    +0.000 A 
ENDBRANCH   9  11
ENDBRANCH   4   9
BRANCH   5  17
ATOM     17  O   UNL     1       8.022   2.533  -5.326  0.00  0.00    +0.000 OA
ATOM     18  H   UNL     1       8.353   3.417  -5.625  0.00  0.00    +0.000 HD
ENDBRANCH   5  17
TORSDOF 4
ENDMDL
MODEL 9
REMARK VINA RESULT:      -4.4     10.926     13.686
REMARK  Name = ox1_orig_f12_ligand
REMARK  5 active torsions:
REMARK  status: ('A' for Active; 'I' for Inactive)
REMARK    1  A    between atoms: C_1  and  O_2
REMARK    2  A    between atoms: O_2  and  C_3
REMARK    3  A    between atoms: C_6  and  C_7
REMARK    4  A    between atoms: C_7  and  C_9
REMARK    5  A    between atoms: C_15  and  O_16
REMARK                            x       y       z     vdW  Elec       q    Type
REMARK                         _______ _______ _______ _____ _____    ______ ____
ROOT
ATOM      1  C   UNL     1      -5.890  -0.459  -4.426  0.00  0.00    +0.000 A 
ATOM      2  C   UNL     1      -6.688   0.154  -3.466  0.00  0.00    +0.000 A 
ATOM      3  C   UNL     1      -6.291   1.358  -2.902  0.00  0.00    +0.000 A 
ATOM      4  C   UNL     1      -5.091   1.956  -3.279  0.00  0.00    +0.000 A 
ATOM      5  C   UNL     1      -4.300   1.340  -4.243  0.00  0.00    +0.000 A 
ATOM      6  C   UNL     1      -4.705   0.143  -4.812  0.00  0.00    +0.000 A 
ENDROOT
BRANCH   1   8
ATOM      7  C   UNL     1      -7.559  -2.186  -4.561  0.00  0.00    +0.000 C 
ATOM      8  O   UNL     1      -6.318  -1.648  -4.955  0.00  0.00    +0.000 OA
ENDBRANCH   1   8
BRANCH   4   9
ATOM      9  C   UNL     1      -4.641   3.262  -2.683  0.00  0.00    +0.000 C 
ATOM     10  O   UNL     1      -4.489   4.206  -3.431  0.00  0.00    +0.000 OA
BRANCH   9  11
ATOM     11  C   UNL     1      -4.415   3.457  -1.232  0.00  0.00    +0.000 A 
ATOM     12  C   UNL     1      -3.229   3.070  -0.620  0.00  0.00    +0.000 A 
ATOM     13  C   UNL     1      -3.045   3.254   0.732  0.00  0.00    +0.000 A 
ATOM     14  C   UNL     1      -4.045   3.832   1.497  0.00  0.00    +0.000 A 
ATOM     15  C   UNL     1      -5.228   4.243   0.898  0.00  0.00    +0.000 A 
ATOM     16  C   UNL     1      -5.416   4.078  -0.472  0.00  0.00    +0.000 A 
ENDBRANCH   9  11
ENDBRANCH   4   9
BRANCH   5  17
ATOM     17  O   UNL     1      -3.139   1.934  -4.617  0.00  0.00    +0.000 OA
ATOM     18  H   UNL     1      -2.395   1.386  -4.973  0.00  0.00    +0.000 HD
ENDBRANCH   5  17
TORSDOF 4
ENDMDL
