REMARK  Name = bgox31_2_ligand
REMARK  5 active torsions:
REMARK  status: ('A' for Active; 'I' for Inactive)
REMARK    1  A    between atoms: C_1  and  O_2
REMARK    2  A    between atoms: O_2  and  C_3
REMARK    3  A    between atoms: C_6  and  C_7
REMARK    4  A    between atoms: C_7  and  C_9
REMARK    5  A    between atoms: C_15  and  O_16
REMARK                            x       y       z     vdW  Elec       q    Type
REMARK                         _______ _______ _______ _____ _____    ______ ____
ROOT
ATOM      1  C   UNL     1       1.843  -6.707   8.551  0.00  0.00    +0.000 A 
ATOM      2  C   UNL     1       1.809  -6.173   7.259  0.00  0.00    +0.000 A 
ATOM      3  C   UNL     1       0.665  -5.579   6.789  0.00  0.00    +0.000 A 
ATOM      4  C   UNL     1      -0.424  -5.517   7.614  0.00  0.00    +0.000 A 
ATOM      5  C   UNL     1      -0.384  -6.000   8.912  0.00  0.00    +0.000 A 
ATOM      6  C   UNL     1       0.758  -6.583   9.368  0.00  0.00    +0.000 A 
ENDROOT
BRANCH   1   8
ATOM      7  C   UNL     1       2.832  -8.221  10.035  0.00  0.00    +0.000 C 
ATOM      8  O   UNL     1       2.960  -7.320   8.963  0.00  0.00    +0.000 OA
ENDBRANCH   1   8
BRANCH   4   9
ATOM      9  C   UNL     1      -1.675  -4.891   7.069  0.00  0.00    +0.000 C 
ATOM     10  O   UNL     1      -2.365  -4.265   7.824  0.00  0.00    +0.000 OA
BRANCH   9  11
ATOM     11  C   UNL     1      -1.997  -4.921   5.672  0.00  0.00    +0.000 A 
ATOM     12  C   UNL     1      -2.815  -3.920   5.200  0.00  0.00    +0.000 A 
ATOM     13  C   UNL     1      -3.197  -3.953   3.878  0.00  0.00    +0.000 A 
ATOM     14  C   UNL     1      -2.739  -4.969   3.074  0.00  0.00    +0.000 A 
ATOM     15  C   UNL     1      -1.974  -5.930   3.534  0.00  0.00    +0.000 A 
ATOM     16  C   UNL     1      -1.581  -5.896   4.855  0.00  0.00    +0.000 A 
ENDBRANCH   9  11
ENDBRANCH   4   9
BRANCH   5  17
ATOM     17  O   UNL     1      -1.469  -5.844   9.685  0.00  0.00    +0.000 OA
ATOM     18  H   UNL     1      -1.466  -6.181  10.616  0.00  0.00    +0.000 HD
ENDBRANCH   5  17
TORSDOF 4
