MODEL 1
REMARK VINA RESULT:      -4.4      0.000      0.000
REMARK  Name = bgox31_2_ligand
REMARK  5 active torsions:
REMARK  status: ('A' for Active; 'I' for Inactive)
REMARK    1  A    between atoms: C_1  and  O_2
REMARK    2  A    between atoms: O_2  and  C_3
REMARK    3  A    between atoms: C_6  and  C_7
REMARK    4  A    between atoms: C_7  and  C_9
REMARK    5  A    between atoms: C_15  and  O_16
REMARK                            x       y       z     vdW  Elec       q    Type
REMARK                         _______ _______ _______ _____ _____    ______ ____
ROOT
ATOM      1  C   UNL     1      -3.071  -2.414   7.870  0.00  0.00    +0.000 A 
ATOM      2  C   UNL     1      -2.829  -2.494   6.495  0.00  0.00    +0.000 A 
ATOM      3  C   UNL     1      -3.588  -1.760   5.618  0.00  0.00    +0.000 A 
ATOM      4  C   UNL     1      -4.570  -0.953   6.123  0.00  0.00    +0.000 A 
ATOM      5  C   UNL     1      -4.785  -0.831   7.487  0.00  0.00    +0.000 A 
ATOM      6  C   UNL     1      -4.022  -1.560   8.346  0.00  0.00    +0.000 A 
ENDROOT
BRANCH   1   8
ATOM      7  C   UNL     1      -1.344  -3.974   8.107  0.00  0.00    +0.000 C 
ATOM      8  O   UNL     1      -2.343  -3.177   8.694  0.00  0.00    +0.000 OA
ENDBRANCH   1   8
BRANCH   4   9
ATOM      9  C   UNL     1      -5.409  -0.183   5.145  0.00  0.00    +0.000 C 
ATOM     10  O   UNL     1      -6.546  -0.529   4.986  0.00  0.00    +0.000 OA
BRANCH   9  11
ATOM     11  C   UNL     1      -4.932   1.005   4.499  0.00  0.00    +0.000 A 
ATOM     12  C   UNL     1      -5.234   2.205   5.101  0.00  0.00    +0.000 A 
ATOM     13  C   UNL     1      -4.847   3.369   4.475  0.00  0.00    +0.000 A 
ATOM     14  C   UNL     1      -4.162   3.294   3.286  0.00  0.00    +0.000 A 
ATOM     15  C   UNL     1      -3.893   2.148   2.709  0.00  0.00    +0.000 A 
ATOM     16  C   UNL     1      -4.270   0.979   3.336  0.00  0.00    +0.000 A 
ENDBRANCH   9  11
ENDBRANCH   4   9
BRANCH   5  17
ATOM     17  O   UNL     1      -5.720   0.031   7.911  0.00  0.00    +0.000 OA
ATOM     18  H   UNL     1      -5.455   0.836   8.423  0.00  0.00    +0.000 HD
ENDBRANCH   5  17
TORSDOF 4
ENDMDL
MODEL 2
REMARK VINA RESULT:      -4.2      5.185      7.063
REMARK  Name = bgox31_2_ligand
REMARK  5 active torsions:
REMARK  status: ('A' for Active; 'I' for Inactive)
REMARK    1  A    between atoms: C_1  and  O_2
REMARK    2  A    between atoms: O_2  and  C_3
REMARK    3  A    between atoms: C_6  and  C_7
REMARK    4  A    between atoms: C_7  and  C_9
REMARK    5  A    between atoms: C_15  and  O_16
REMARK                            x       y       z     vdW  Elec       q    Type
REMARK                         _______ _______ _______ _____ _____    ______ ____
ROOT
ATOM      1  C   UNL     1      -4.376   3.753   3.430  0.00  0.00    +0.000 A 
ATOM      2  C   UNL     1      -3.720   2.589   3.014  0.00  0.00    +0.000 A 
ATOM      3  C   UNL     1      -4.026   2.022   1.803  0.00  0.00    +0.000 A 
ATOM      4  C   UNL     1      -4.971   2.625   1.020  0.00  0.00    +0.000 A 
ATOM      5  C   UNL     1      -5.590   3.804   1.402  0.00  0.00    +0.000 A 
ATOM      6  C   UNL     1      -5.276   4.359   2.604  0.00  0.00    +0.000 A 
ENDROOT
BRANCH   1   8
ATOM      7  C   UNL     1      -2.980   5.119   4.717  0.00  0.00    +0.000 C 
ATOM      8  O   UNL     1      -4.088   4.256   4.637  0.00  0.00    +0.000 OA
ENDBRANCH   1   8
BRANCH   4   9
ATOM      9  C   UNL     1      -5.312   1.970  -0.288  0.00  0.00    +0.000 C 
ATOM     10  O   UNL     1      -5.113   2.589  -1.295  0.00  0.00    +0.000 OA
BRANCH   9  11
ATOM     11  C   UNL     1      -5.749   0.607  -0.367  0.00  0.00    +0.000 A 
ATOM     12  C   UNL     1      -5.584  -0.031  -1.575  0.00  0.00    +0.000 A 
ATOM     13  C   UNL     1      -6.050  -1.319  -1.707  0.00  0.00    +0.000 A 
ATOM     14  C   UNL     1      -6.648  -1.928  -0.630  0.00  0.00    +0.000 A 
ATOM     15  C   UNL     1      -6.818  -1.309   0.514  0.00  0.00    +0.000 A 
ATOM     16  C   UNL     1      -6.344  -0.022   0.654  0.00  0.00    +0.000 A 
ENDBRANCH   9  11
ENDBRANCH   4   9
BRANCH   5  17
ATOM     17  O   UNL     1      -6.458   4.373   0.552  0.00  0.00    +0.000 OA
ATOM     18  H   UNL     1      -6.194   4.541  -0.387  0.00  0.00    +0.000 HD
ENDBRANCH   5  17
TORSDOF 4
ENDMDL
MODEL 3
REMARK VINA RESULT:      -4.1      4.811      7.305
REMARK  Name = bgox31_2_ligand
REMARK  5 active torsions:
REMARK  status: ('A' for Active; 'I' for Inactive)
REMARK    1  A    between atoms: C_1  and  O_2
REMARK    2  A    between atoms: O_2  and  C_3
REMARK    3  A    between atoms: C_6  and  C_7
REMARK    4  A    between atoms: C_7  and  C_9
REMARK    5  A    between atoms: C_15  and  O_16
REMARK                            x       y       z     vdW  Elec       q    Type
REMARK                         _______ _______ _______ _____ _____    ______ ____
ROOT
ATOM      1  C   UNL     1       0.585  -5.970  11.882  0.00  0.00    +0.000 A 
ATOM      2  C   UNL     1      -0.782  -6.056  11.599  0.00  0.00    +0.000 A 
ATOM      3  C   UNL     1      -1.226  -5.947  10.306  0.00  0.00    +0.000 A 
ATOM      4  C   UNL     1      -0.304  -5.764   9.313  0.00  0.00    +0.000 A 
ATOM      5  C   UNL     1       1.055  -5.727   9.578  0.00  0.00    +0.000 A 
ATOM      6  C   UNL     1       1.484  -5.840  10.864  0.00  0.00    +0.000 A 
ENDROOT
BRANCH   1   8
ATOM      7  C   UNL     1      -0.001  -5.824  14.142  0.00  0.00    +0.000 C 
ATOM      8  O   UNL     1       0.982  -6.035  13.159  0.00  0.00    +0.000 OA
ENDBRANCH   1   8
BRANCH   4   9
ATOM      9  C   UNL     1      -0.814  -5.616   7.908  0.00  0.00    +0.000 C 
ATOM     10  O   UNL     1      -0.558  -6.486   7.123  0.00  0.00    +0.000 OA
BRANCH   9  11
ATOM     11  C   UNL     1      -1.683  -4.543   7.521  0.00  0.00    +0.000 A 
ATOM     12  C   UNL     1      -2.801  -4.879   6.792  0.00  0.00    +0.000 A 
ATOM     13  C   UNL     1      -3.623  -3.868   6.349  0.00  0.00    +0.000 A 
ATOM     14  C   UNL     1      -3.312  -2.567   6.660  0.00  0.00    +0.000 A 
ATOM     15  C   UNL     1      -2.235  -2.251   7.340  0.00  0.00    +0.000 A 
ATOM     16  C   UNL     1      -1.414  -3.261   7.794  0.00  0.00    +0.000 A 
ENDBRANCH   9  11
ENDBRANCH   4   9
BRANCH   5  17
ATOM     17  O   UNL     1       1.904  -5.612   8.545  0.00  0.00    +0.000 OA
ATOM     18  H   UNL     1       2.815  -5.251   8.691  0.00  0.00    +0.000 HD
ENDBRANCH   5  17
TORSDOF 4
ENDMDL
MODEL 4
REMARK VINA RESULT:      -3.9      5.160      7.634
REMARK  Name = bgox31_2_ligand
REMARK  5 active torsions:
REMARK  status: ('A' for Active; 'I' for Inactive)
REMARK    1  A    between atoms: C_1  and  O_2
REMARK    2  A    between atoms: O_2  and  C_3
REMARK    3  A    between atoms: C_6  and  C_7
REMARK    4  A    between atoms: C_7  and  C_9
REMARK    5  A    between atoms: C_15  and  O_16
REMARK                            x       y       z     vdW  Elec       q    Type
REMARK                         _______ _______ _______ _____ _____    ______ ____
ROOT
ATOM      1  C   UNL     1      -4.872   1.781   2.402  0.00  0.00    +0.000 A 
ATOM      2  C   UNL     1      -5.699   0.655   2.465  0.00  0.00    +0.000 A 
ATOM      3  C   UNL     1      -6.271   0.156   1.322  0.00  0.00    +0.000 A 
ATOM      4  C   UNL     1      -6.003   0.777   0.133  0.00  0.00    +0.000 A 
ATOM      5  C   UNL     1      -5.146   1.863   0.055  0.00  0.00    +0.000 A 
ATOM      6  C   UNL     1      -4.582   2.347   1.196  0.00  0.00    +0.000 A 
ENDROOT
BRANCH   1   8
ATOM      7  C   UNL     1      -3.735   3.524   3.470  0.00  0.00    +0.000 C 
ATOM      8  O   UNL     1      -4.366   2.270   3.542  0.00  0.00    +0.000 OA
ENDBRANCH   1   8
BRANCH   4   9
ATOM      9  C   UNL     1      -6.663   0.234  -1.100  0.00  0.00    +0.000 C 
ATOM     10  O   UNL     1      -7.564   0.864  -1.580  0.00  0.00    +0.000 OA
BRANCH   9  11
ATOM     11  C   UNL     1      -6.176  -0.934  -1.775  0.00  0.00    +0.000 A 
ATOM     12  C   UNL     1      -5.267  -0.733  -2.789  0.00  0.00    +0.000 A 
ATOM     13  C   UNL     1      -4.826  -1.826  -3.501  0.00  0.00    +0.000 A 
ATOM     14  C   UNL     1      -5.293  -3.075  -3.168  0.00  0.00    +0.000 A 
ATOM     15  C   UNL     1      -6.173  -3.257  -2.212  0.00  0.00    +0.000 A 
ATOM     16  C   UNL     1      -6.610  -2.168  -1.490  0.00  0.00    +0.000 A 
ENDBRANCH   9  11
ENDBRANCH   4   9
BRANCH   5  17
ATOM     17  O   UNL     1      -4.878   2.379  -1.153  0.00  0.00    +0.000 OA
ATOM     18  H   UNL     1      -5.038   3.341  -1.328  0.00  0.00    +0.000 HD
ENDBRANCH   5  17
TORSDOF 4
ENDMDL
MODEL 5
REMARK VINA RESULT:      -3.9      1.181      1.429
REMARK  Name = bgox31_2_ligand
REMARK  5 active torsions:
REMARK  status: ('A' for Active; 'I' for Inactive)
REMARK    1  A    between atoms: C_1  and  O_2
REMARK    2  A    between atoms: O_2  and  C_3
REMARK    3  A    between atoms: C_6  and  C_7
REMARK    4  A    between atoms: C_7  and  C_9
REMARK    5  A    between atoms: C_15  and  O_16
REMARK                            x       y       z     vdW  Elec       q    Type
REMARK                         _______ _______ _______ _____ _____    ______ ____
ROOT
ATOM      1  C   UNL     1      -3.763  -2.624   7.283  0.00  0.00    +0.000 A 
ATOM      2  C   UNL     1      -3.936  -2.983   5.943  0.00  0.00    +0.000 A 
ATOM      3  C   UNL     1      -4.705  -2.204   5.115  0.00  0.00    +0.000 A 
ATOM      4  C   UNL     1      -5.282  -1.076   5.631  0.00  0.00    +0.000 A 
ATOM      5  C   UNL     1      -5.077  -0.688   6.945  0.00  0.00    +0.000 A 
ATOM      6  C   UNL     1      -4.308  -1.466   7.755  0.00  0.00    +0.000 A 
ENDROOT
BRANCH   1   8
ATOM      7  C   UNL     1      -1.649  -3.414   7.900  0.00  0.00    +0.000 C 
ATOM      8  O   UNL     1      -3.044  -3.430   8.075  0.00  0.00    +0.000 OA
ENDBRANCH   1   8
BRANCH   4   9
ATOM      9  C   UNL     1      -6.144  -0.255   4.716  0.00  0.00    +0.000 C 
ATOM     10  O   UNL     1      -7.302  -0.126   5.001  0.00  0.00    +0.000 OA
BRANCH   9  11
ATOM     11  C   UNL     1      -5.604   0.463   3.599  0.00  0.00    +0.000 A 
ATOM     12  C   UNL     1      -4.515   1.269   3.844  0.00  0.00    +0.000 A 
ATOM     13  C   UNL     1      -4.010   2.022   2.809  0.00  0.00    +0.000 A 
ATOM     14  C   UNL     1      -4.595   1.933   1.568  0.00  0.00    +0.000 A 
ATOM     15  C   UNL     1      -5.643   1.177   1.345  0.00  0.00    +0.000 A 
ATOM     16  C   UNL     1      -6.147   0.413   2.377  0.00  0.00    +0.000 A 
ENDBRANCH   9  11
ENDBRANCH   4   9
BRANCH   5  17
ATOM     17  O   UNL     1      -5.620   0.466   7.362  0.00  0.00    +0.000 OA
ATOM     18  H   UNL     1      -6.039   0.520   8.257  0.00  0.00    +0.000 HD
ENDBRANCH   5  17
TORSDOF 4
ENDMDL
MODEL 6
REMARK VINA RESULT:      -3.9      4.816      6.533
REMARK  Name = bgox31_2_ligand
REMARK  5 active torsions:
REMARK  status: ('A' for Active; 'I' for Inactive)
REMARK    1  A    between atoms: C_1  and  O_2
REMARK    2  A    between atoms: O_2  and  C_3
REMARK    3  A    between atoms: C_6  and  C_7
REMARK    4  A    between atoms: C_7  and  C_9
REMARK    5  A    between atoms: C_15  and  O_16
REMARK                            x       y       z     vdW  Elec       q    Type
REMARK                         _______ _______ _______ _____ _____    ______ ____
ROOT
ATOM      1  C   UNL     1      -4.477   4.046   3.141  0.00  0.00    +0.000 A 
ATOM      2  C   UNL     1      -3.726   2.871   3.037  0.00  0.00    +0.000 A 
ATOM      3  C   UNL     1      -4.323   1.707   2.625  0.00  0.00    +0.000 A 
ATOM      4  C   UNL     1      -5.654   1.730   2.315  0.00  0.00    +0.000 A 
ATOM      5  C   UNL     1      -6.395   2.900   2.369  0.00  0.00    +0.000 A 
ATOM      6  C   UNL     1      -5.791   4.050   2.775  0.00  0.00    +0.000 A 
ENDROOT
BRANCH   1   8
ATOM      7  C   UNL     1      -2.879   4.987   4.567  0.00  0.00    +0.000 C 
ATOM      8  O   UNL     1      -3.875   5.155   3.590  0.00  0.00    +0.000 OA
ENDBRANCH   1   8
BRANCH   4   9
ATOM      9  C   UNL     1      -6.294   0.438   1.897  0.00  0.00    +0.000 C 
ATOM     10  O   UNL     1      -6.973  -0.139   2.700  0.00  0.00    +0.000 OA
BRANCH   9  11
ATOM     11  C   UNL     1      -6.214  -0.053   0.552  0.00  0.00    +0.000 A 
ATOM     12  C   UNL     1      -6.549  -1.372   0.349  0.00  0.00    +0.000 A 
ATOM     13  C   UNL     1      -6.423  -1.895  -0.918  0.00  0.00    +0.000 A 
ATOM     14  C   UNL     1      -5.984  -1.083  -1.936  0.00  0.00    +0.000 A 
ATOM     15  C   UNL     1      -5.650   0.169  -1.733  0.00  0.00    +0.000 A 
ATOM     16  C   UNL     1      -5.784   0.700  -0.468  0.00  0.00    +0.000 A 
ENDBRANCH   9  11
ENDBRANCH   4   9
BRANCH   5  17
ATOM     17  O   UNL     1      -7.680   2.860   1.986  0.00  0.00    +0.000 OA
ATOM     18  H   UNL     1      -8.359   2.441   2.572  0.00  0.00    +0.000 HD
ENDBRANCH   5  17
TORSDOF 4
ENDMDL
MODEL 7
REMARK VINA RESULT:      -3.9      4.410      6.799
REMARK  Name = bgox31_2_ligand
REMARK  5 active torsions:
REMARK  status: ('A' for Active; 'I' for Inactive)
REMARK    1  A    between atoms: C_1  and  O_2
REMARK    2  A    between atoms: O_2  and  C_3
REMARK    3  A    between atoms: C_6  and  C_7
REMARK    4  A    between atoms: C_7  and  C_9
REMARK    5  A    between atoms: C_15  and  O_16
REMARK                            x       y       z     vdW  Elec       q    Type
REMARK                         _______ _______ _______ _____ _____    ______ ____
ROOT
ATOM      1  C   UNL     1       1.154  -5.943  11.047  0.00  0.00    +0.000 A 
ATOM      2  C   UNL     1       1.581  -5.609   9.757  0.00  0.00    +0.000 A 
ATOM      3  C   UNL     1       0.672  -5.514   8.734  0.00  0.00    +0.000 A 
ATOM      4  C   UNL     1      -0.648  -5.743   9.010  0.00  0.00    +0.000 A 
ATOM      5  C   UNL     1      -1.085  -6.026  10.294  0.00  0.00    +0.000 A 
ATOM      6  C   UNL     1      -0.175  -6.113  11.301  0.00  0.00    +0.000 A 
ENDROOT
BRANCH   1   8
ATOM      7  C   UNL     1       3.026  -7.092  11.852  0.00  0.00    +0.000 C 
ATOM      8  O   UNL     1       2.072  -6.072  12.013  0.00  0.00    +0.000 OA
ENDBRANCH   1   8
BRANCH   4   9
ATOM      9  C   UNL     1      -1.621  -5.664   7.870  0.00  0.00    +0.000 C 
ATOM     10  O   UNL     1      -2.029  -6.693   7.408  0.00  0.00    +0.000 OA
BRANCH   9  11
ATOM     11  C   UNL     1      -2.156  -4.417   7.408  0.00  0.00    +0.000 A 
ATOM     12  C   UNL     1      -3.205  -4.480   6.520  0.00  0.00    +0.000 A 
ATOM     13  C   UNL     1      -3.702  -3.303   6.006  0.00  0.00    +0.000 A 
ATOM     14  C   UNL     1      -3.148  -2.111   6.406  0.00  0.00    +0.000 A 
ATOM     15  C   UNL     1      -2.136  -2.058   7.239  0.00  0.00    +0.000 A 
ATOM     16  C   UNL     1      -1.641  -3.233   7.764  0.00  0.00    +0.000 A 
ENDBRANCH   9  11
ENDBRANCH   4   9
BRANCH   5  17
ATOM     17  O   UNL     1      -2.402  -6.172  10.502  0.00  0.00    +0.000 OA
ATOM     18  H   UNL     1      -2.762  -6.159  11.424  0.00  0.00    +0.000 HD
ENDBRANCH   5  17
TORSDOF 4
ENDMDL
MODEL 8
REMARK VINA RESULT:      -3.9      2.684      7.688
REMARK  Name = bgox31_2_ligand
REMARK  5 active torsions:
REMARK  status: ('A' for Active; 'I' for Inactive)
REMARK    1  A    between atoms: C_1  and  O_2
REMARK    2  A    between atoms: O_2  and  C_3
REMARK    3  A    between atoms: C_6  and  C_7
REMARK    4  A    between atoms: C_7  and  C_9
REMARK    5  A    between atoms: C_15  and  O_16
REMARK                            x       y       z     vdW  Elec       q    Type
REMARK                         _______ _______ _______ _____ _____    ______ ____
ROOT
ATOM      1  C   UNL     1      -3.371  -2.226   6.092  0.00  0.00    +0.000 A 
ATOM      2  C   UNL     1      -2.325  -1.951   6.978  0.00  0.00    +0.000 A 
ATOM      3  C   UNL     1      -1.773  -2.960   7.726  0.00  0.00    +0.000 A 
ATOM      4  C   UNL     1      -2.264  -4.228   7.575  0.00  0.00    +0.000 A 
ATOM      5  C   UNL     1      -3.267  -4.518   6.664  0.00  0.00    +0.000 A 
ATOM      6  C   UNL     1      -3.803  -3.509   5.924  0.00  0.00    +0.000 A 
ENDROOT
BRANCH   1   8
ATOM      7  C   UNL     1      -5.037  -0.587   5.988  0.00  0.00    +0.000 C 
ATOM      8  O   UNL     1      -3.918  -1.212   5.410  0.00  0.00    +0.000 OA
ENDBRANCH   1   8
BRANCH   4   9
ATOM      9  C   UNL     1      -1.667  -5.311   8.426  0.00  0.00    +0.000 C 
ATOM     10  O   UNL     1      -2.365  -5.822   9.257  0.00  0.00    +0.000 OA
BRANCH   9  11
ATOM     11  C   UNL     1      -0.348  -5.823   8.195  0.00  0.00    +0.000 A 
ATOM     12  C   UNL     1      -0.239  -6.906   7.353  0.00  0.00    +0.000 A 
ATOM     13  C   UNL     1       1.005  -7.464   7.158  0.00  0.00    +0.000 A 
ATOM     14  C   UNL     1       2.092  -6.915   7.795  0.00  0.00    +0.000 A 
ATOM     15  C   UNL     1       1.979  -5.894   8.610  0.00  0.00    +0.000 A 
ATOM     16  C   UNL     1       0.737  -5.326   8.801  0.00  0.00    +0.000 A 
ENDBRANCH   9  11
ENDBRANCH   4   9
BRANCH   5  17
ATOM     17  O   UNL     1      -3.650  -5.795   6.522  0.00  0.00    +0.000 OA
ATOM     18  H   UNL     1      -3.838  -6.347   7.322  0.00  0.00    +0.000 HD
ENDBRANCH   5  17
TORSDOF 4
ENDMDL
MODEL 9
REMARK VINA RESULT:      -3.9      3.354      8.557
REMARK  Name = bgox31_2_ligand
REMARK  5 active torsions:
REMARK  status: ('A' for Active; 'I' for Inactive)
REMARK    1  A    between atoms: C_1  and  O_2
REMARK    2  A    between atoms: O_2  and  C_3
REMARK    3  A    between atoms: C_6  and  C_7
REMARK    4  A    between atoms: C_7  and  C_9
REMARK    5  A    between atoms: C_15  and  O_16
REMARK                            x       y       z     vdW  Elec       q    Type
REMARK                         _______ _______ _______ _____ _____    ______ ____
ROOT
ATOM      1  C   UNL     1      -3.247  -3.495   6.916  0.00  0.00    +0.000 A 
ATOM      2  C   UNL     1      -2.117  -2.924   7.510  0.00  0.00    +0.000 A 
ATOM      3  C   UNL     1      -1.122  -3.726   8.010  0.00  0.00    +0.000 A 
ATOM      4  C   UNL     1      -1.263  -5.082   7.905  0.00  0.00    +0.000 A 
ATOM      5  C   UNL     1      -2.356  -5.655   7.276  0.00  0.00    +0.000 A 
ATOM      6  C   UNL     1      -3.334  -4.849   6.779  0.00  0.00    +0.000 A 
ENDROOT
BRANCH   1   8
ATOM      7  C   UNL     1      -4.223  -1.370   6.974  0.00  0.00    +0.000 C 
ATOM      8  O   UNL     1      -4.220  -2.686   6.478  0.00  0.00    +0.000 OA
ENDBRANCH   1   8
BRANCH   4   9
ATOM      9  C   UNL     1      -0.179  -5.942   8.487  0.00  0.00    +0.000 C 
ATOM     10  O   UNL     1       0.486  -6.595   7.733  0.00  0.00    +0.000 OA
BRANCH   9  11
ATOM     11  C   UNL     1       0.154  -5.910   9.882  0.00  0.00    +0.000 A 
ATOM     12  C   UNL     1       1.485  -5.768  10.201  0.00  0.00    +0.000 A 
ATOM     13  C   UNL     1       1.848  -5.798  11.528  0.00  0.00    +0.000 A 
ATOM     14  C   UNL     1       0.875  -5.951  12.486  0.00  0.00    +0.000 A 
ATOM     15  C   UNL     1      -0.390  -6.104  12.174  0.00  0.00    +0.000 A 
ATOM     16  C   UNL     1      -0.760  -6.065  10.847  0.00  0.00    +0.000 A 
ENDBRANCH   9  11
ENDBRANCH   4   9
BRANCH   5  17
ATOM     17  O   UNL     1      -2.394  -6.990   7.150  0.00  0.00    +0.000 OA
ATOM     18  H   UNL     1      -2.642  -7.399   6.283  0.00  0.00    +0.000 HD
ENDBRANCH   5  17
TORSDOF 4
ENDMDL
