REMARK  Name = ox2_esm1_f8_ligand
REMARK  5 active torsions:
REMARK  status: ('A' for Active; 'I' for Inactive)
REMARK    1  A    between atoms: C_1  and  O_2
REMARK    2  A    between atoms: O_2  and  C_3
REMARK    3  A    between atoms: C_6  and  C_7
REMARK    4  A    between atoms: C_7  and  C_9
REMARK    5  A    between atoms: C_15  and  O_16
REMARK                            x       y       z     vdW  Elec       q    Type
REMARK                         _______ _______ _______ _____ _____    ______ ____
ROOT
ATOM      1  C   UNL     1      -1.544  -5.907   1.433  0.00  0.00    +0.000 A 
ATOM      2  C   UNL     1      -0.648  -5.590   0.414  0.00  0.00    +0.000 A 
ATOM      3  C   UNL     1      -0.944  -4.581  -0.484  0.00  0.00    +0.000 A 
ATOM      4  C   UNL     1      -2.138  -3.889  -0.389  0.00  0.00    +0.000 A 
ATOM      5  C   UNL     1      -3.044  -4.201   0.635  0.00  0.00    +0.000 A 
ATOM      6  C   UNL     1      -2.729  -5.213   1.541  0.00  0.00    +0.000 A 
ENDROOT
BRANCH   1   8
ATOM      7  C   UNL     1      -0.065  -7.641   2.265  0.00  0.00    +0.000 C 
ATOM      8  O   UNL     1      -1.296  -6.888   2.349  0.00  0.00    +0.000 OA
ENDBRANCH   1   8
BRANCH   4   9
ATOM      9  C   UNL     1      -2.477  -2.803  -1.359  0.00  0.00    +0.000 C 
ATOM     10  O   UNL     1      -3.386  -2.039  -1.112  0.00  0.00    +0.000 OA
BRANCH   9  11
ATOM     11  C   UNL     1      -1.715  -2.631  -2.614  0.00  0.00    +0.000 A 
ATOM     12  C   UNL     1      -1.196  -1.382  -2.941  0.00  0.00    +0.000 A 
ATOM     13  C   UNL     1      -0.471  -1.224  -4.119  0.00  0.00    +0.000 A 
ATOM     14  C   UNL     1      -0.287  -2.287  -4.992  0.00  0.00    +0.000 A 
ATOM     15  C   UNL     1      -0.843  -3.518  -4.679  0.00  0.00    +0.000 A 
ATOM     16  C   UNL     1      -1.553  -3.692  -3.491  0.00  0.00    +0.000 A 
ENDBRANCH   9  11
ENDBRANCH   4   9
BRANCH   5  17
ATOM     17  O   UNL     1      -4.218  -3.504   0.726  0.00  0.00    +0.000 OA
ATOM     18  H   UNL     1      -4.865  -3.716   1.445  0.00  0.00    +0.000 HD
ENDBRANCH   5  17
TORSDOF 4
