MODEL 1
REMARK VINA RESULT:      -5.0      0.000      0.000
REMARK  Name = ox2_esm1_f8_ligand
REMARK  5 active torsions:
REMARK  status: ('A' for Active; 'I' for Inactive)
REMARK    1  A    between atoms: C_1  and  O_2
REMARK    2  A    between atoms: O_2  and  C_3
REMARK    3  A    between atoms: C_6  and  C_7
REMARK    4  A    between atoms: C_7  and  C_9
REMARK    5  A    between atoms: C_15  and  O_16
REMARK                            x       y       z     vdW  Elec       q    Type
REMARK                         _______ _______ _______ _____ _____    ______ ____
ROOT
ATOM      1  C   UNL     1       7.249   4.672  -0.030  0.00  0.00    +0.000 A 
ATOM      2  C   UNL     1       7.441   5.558   1.027  0.00  0.00    +0.000 A 
ATOM      3  C   UNL     1       7.126   5.180   2.319  0.00  0.00    +0.000 A 
ATOM      4  C   UNL     1       6.601   3.925   2.571  0.00  0.00    +0.000 A 
ATOM      5  C   UNL     1       6.406   3.026   1.512  0.00  0.00    +0.000 A 
ATOM      6  C   UNL     1       6.739   3.416   0.215  0.00  0.00    +0.000 A 
ENDROOT
BRANCH   1   8
ATOM      7  C   UNL     1       6.603   4.687  -2.369  0.00  0.00    +0.000 C 
ATOM      8  O   UNL     1       7.551   4.993  -1.322  0.00  0.00    +0.000 OA
ENDBRANCH   1   8
BRANCH   4   9
ATOM      9  C   UNL     1       6.245   3.505   3.961  0.00  0.00    +0.000 C 
ATOM     10  O   UNL     1       6.884   2.630   4.507  0.00  0.00    +0.000 OA
BRANCH   9  11
ATOM     11  C   UNL     1       5.132   4.145   4.694  0.00  0.00    +0.000 A 
ATOM     12  C   UNL     1       5.296   4.493   6.031  0.00  0.00    +0.000 A 
ATOM     13  C   UNL     1       4.250   5.105   6.717  0.00  0.00    +0.000 A 
ATOM     14  C   UNL     1       3.032   5.342   6.097  0.00  0.00    +0.000 A 
ATOM     15  C   UNL     1       2.863   4.955   4.776  0.00  0.00    +0.000 A 
ATOM     16  C   UNL     1       3.912   4.360   4.074  0.00  0.00    +0.000 A 
ENDBRANCH   9  11
ENDBRANCH   4   9
BRANCH   5  17
ATOM     17  O   UNL     1       5.896   1.783   1.773  0.00  0.00    +0.000 OA
ATOM     18  H   UNL     1       5.755   1.141   1.033  0.00  0.00    +0.000 HD
ENDBRANCH   5  17
TORSDOF 4
ENDMDL
MODEL 2
REMARK VINA RESULT:      -4.9      8.952      9.848
REMARK  Name = ox2_esm1_f8_ligand
REMARK  5 active torsions:
REMARK  status: ('A' for Active; 'I' for Inactive)
REMARK    1  A    between atoms: C_1  and  O_2
REMARK    2  A    between atoms: O_2  and  C_3
REMARK    3  A    between atoms: C_6  and  C_7
REMARK    4  A    between atoms: C_7  and  C_9
REMARK    5  A    between atoms: C_15  and  O_16
REMARK                            x       y       z     vdW  Elec       q    Type
REMARK                         _______ _______ _______ _____ _____    ______ ____
ROOT
ATOM      1  C   UNL     1       2.008   2.835  -5.582  0.00  0.00    +0.000 A 
ATOM      2  C   UNL     1       1.499   2.759  -4.287  0.00  0.00    +0.000 A 
ATOM      3  C   UNL     1       1.103   1.542  -3.765  0.00  0.00    +0.000 A 
ATOM      4  C   UNL     1       1.192   0.392  -4.529  0.00  0.00    +0.000 A 
ATOM      5  C   UNL     1       1.705   0.459  -5.832  0.00  0.00    +0.000 A 
ATOM      6  C   UNL     1       2.112   1.691  -6.343  0.00  0.00    +0.000 A 
ENDROOT
BRANCH   1   8
ATOM      7  C   UNL     1       3.812   4.390  -6.044  0.00  0.00    +0.000 C 
ATOM      8  O   UNL     1       2.421   4.010  -6.141  0.00  0.00    +0.000 OA
ENDBRANCH   1   8
BRANCH   4   9
ATOM      9  C   UNL     1       0.757  -0.930  -3.982  0.00  0.00    +0.000 C 
ATOM     10  O   UNL     1       1.405  -1.925  -4.229  0.00  0.00    +0.000 OA
BRANCH   9  11
ATOM     11  C   UNL     1      -0.446  -1.049  -3.131  0.00  0.00    +0.000 A 
ATOM     12  C   UNL     1      -1.709  -0.912  -3.699  0.00  0.00    +0.000 A 
ATOM     13  C   UNL     1      -2.841  -1.034  -2.897  0.00  0.00    +0.000 A 
ATOM     14  C   UNL     1      -2.729  -1.255  -1.532  0.00  0.00    +0.000 A 
ATOM     15  C   UNL     1      -1.466  -1.348  -0.968  0.00  0.00    +0.000 A 
ATOM     16  C   UNL     1      -0.326  -1.249  -1.765  0.00  0.00    +0.000 A 
ENDBRANCH   9  11
ENDBRANCH   4   9
BRANCH   5  17
ATOM     17  O   UNL     1       1.798  -0.686  -6.576  0.00  0.00    +0.000 OA
ATOM     18  H   UNL     1       2.243  -0.667  -7.460  0.00  0.00    +0.000 HD
ENDBRANCH   5  17
TORSDOF 4
ENDMDL
MODEL 3
REMARK VINA RESULT:      -4.8      2.243      5.948
REMARK  Name = ox2_esm1_f8_ligand
REMARK  5 active torsions:
REMARK  status: ('A' for Active; 'I' for Inactive)
REMARK    1  A    between atoms: C_1  and  O_2
REMARK    2  A    between atoms: O_2  and  C_3
REMARK    3  A    between atoms: C_6  and  C_7
REMARK    4  A    between atoms: C_7  and  C_9
REMARK    5  A    between atoms: C_15  and  O_16
REMARK                            x       y       z     vdW  Elec       q    Type
REMARK                         _______ _______ _______ _____ _____    ______ ____
ROOT
ATOM      1  C   UNL     1       3.031   5.903   5.309  0.00  0.00    +0.000 A 
ATOM      2  C   UNL     1       3.915   6.793   4.702  0.00  0.00    +0.000 A 
ATOM      3  C   UNL     1       4.876   6.328   3.823  0.00  0.00    +0.000 A 
ATOM      4  C   UNL     1       4.978   4.976   3.550  0.00  0.00    +0.000 A 
ATOM      5  C   UNL     1       4.091   4.075   4.155  0.00  0.00    +0.000 A 
ATOM      6  C   UNL     1       3.119   4.556   5.031  0.00  0.00    +0.000 A 
ENDROOT
BRANCH   1   8
ATOM      7  C   UNL     1       2.299   6.221   7.600  0.00  0.00    +0.000 C 
ATOM      8  O   UNL     1       2.060   6.310   6.177  0.00  0.00    +0.000 OA
ENDBRANCH   1   8
BRANCH   4   9
ATOM      9  C   UNL     1       6.019   4.458   2.610  0.00  0.00    +0.000 C 
ATOM     10  O   UNL     1       6.861   3.683   3.013  0.00  0.00    +0.000 OA
BRANCH   9  11
ATOM     11  C   UNL     1       6.036   4.861   1.188  0.00  0.00    +0.000 A 
ATOM     12  C   UNL     1       5.220   5.902   0.755  0.00  0.00    +0.000 A 
ATOM     13  C   UNL     1       5.244   6.286  -0.583  0.00  0.00    +0.000 A 
ATOM     14  C   UNL     1       6.045   5.623  -1.501  0.00  0.00    +0.000 A 
ATOM     15  C   UNL     1       6.824   4.560  -1.070  0.00  0.00    +0.000 A 
ATOM     16  C   UNL     1       6.823   4.181   0.272  0.00  0.00    +0.000 A 
ENDBRANCH   9  11
ENDBRANCH   4   9
BRANCH   5  17
ATOM     17  O   UNL     1       4.194   2.740   3.871  0.00  0.00    +0.000 OA
ATOM     18  H   UNL     1       5.087   2.325   3.760  0.00  0.00    +0.000 HD
ENDBRANCH   5  17
TORSDOF 4
ENDMDL
MODEL 4
REMARK VINA RESULT:      -4.8      9.223     11.399
REMARK  Name = ox2_esm1_f8_ligand
REMARK  5 active torsions:
REMARK  status: ('A' for Active; 'I' for Inactive)
REMARK    1  A    between atoms: C_1  and  O_2
REMARK    2  A    between atoms: O_2  and  C_3
REMARK    3  A    between atoms: C_6  and  C_7
REMARK    4  A    between atoms: C_7  and  C_9
REMARK    5  A    between atoms: C_15  and  O_16
REMARK                            x       y       z     vdW  Elec       q    Type
REMARK                         _______ _______ _______ _____ _____    ______ ____
ROOT
ATOM      1  C   UNL     1      -2.174  -1.532  -1.390  0.00  0.00    +0.000 A 
ATOM      2  C   UNL     1      -0.831  -1.219  -1.186  0.00  0.00    +0.000 A 
ATOM      3  C   UNL     1      -0.044  -0.810  -2.246  0.00  0.00    +0.000 A 
ATOM      4  C   UNL     1      -0.576  -0.724  -3.520  0.00  0.00    +0.000 A 
ATOM      5  C   UNL     1      -1.927  -1.035  -3.733  0.00  0.00    +0.000 A 
ATOM      6  C   UNL     1      -2.714  -1.436  -2.653  0.00  0.00    +0.000 A 
ENDROOT
BRANCH   1   8
ATOM      7  C   UNL     1      -2.604  -3.049   0.454  0.00  0.00    +0.000 C 
ATOM      8  O   UNL     1      -2.996  -1.933  -0.376  0.00  0.00    +0.000 OA
ENDBRANCH   1   8
BRANCH   4   9
ATOM      9  C   UNL     1       0.265  -0.294  -4.678  0.00  0.00    +0.000 C 
ATOM     10  O   UNL     1       0.708  -1.126  -5.441  0.00  0.00    +0.000 OA
BRANCH   9  11
ATOM     11  C   UNL     1       0.560   1.134  -4.923  0.00  0.00    +0.000 A 
ATOM     12  C   UNL     1      -0.145   1.827  -5.902  0.00  0.00    +0.000 A 
ATOM     13  C   UNL     1       0.127   3.174  -6.125  0.00  0.00    +0.000 A 
ATOM     14  C   UNL     1       1.119   3.829  -5.409  0.00  0.00    +0.000 A 
ATOM     15  C   UNL     1       1.846   3.121  -4.464  0.00  0.00    +0.000 A 
ATOM     16  C   UNL     1       1.566   1.777  -4.219  0.00  0.00    +0.000 A 
ENDBRANCH   9  11
ENDBRANCH   4   9
BRANCH   5  17
ATOM     17  O   UNL     1      -2.447  -0.937  -4.995  0.00  0.00    +0.000 OA
ATOM     18  H   UNL     1      -3.380  -1.217  -5.169  0.00  0.00    +0.000 HD
ENDBRANCH   5  17
TORSDOF 4
ENDMDL
MODEL 5
REMARK VINA RESULT:      -4.7     10.143     11.110
REMARK  Name = ox2_esm1_f8_ligand
REMARK  5 active torsions:
REMARK  status: ('A' for Active; 'I' for Inactive)
REMARK    1  A    between atoms: C_1  and  O_2
REMARK    2  A    between atoms: O_2  and  C_3
REMARK    3  A    between atoms: C_6  and  C_7
REMARK    4  A    between atoms: C_7  and  C_9
REMARK    5  A    between atoms: C_15  and  O_16
REMARK                            x       y       z     vdW  Elec       q    Type
REMARK                         _______ _______ _______ _____ _____    ______ ____
ROOT
ATOM      1  C   UNL     1      -0.251  -0.448  -4.258  0.00  0.00    +0.000 A 
ATOM      2  C   UNL     1       0.408  -0.598  -3.039  0.00  0.00    +0.000 A 
ATOM      3  C   UNL     1      -0.281  -1.042  -1.926  0.00  0.00    +0.000 A 
ATOM      4  C   UNL     1      -1.633  -1.325  -2.008  0.00  0.00    +0.000 A 
ATOM      5  C   UNL     1      -2.302  -1.178  -3.231  0.00  0.00    +0.000 A 
ATOM      6  C   UNL     1      -1.594  -0.740  -4.349  0.00  0.00    +0.000 A 
ENDROOT
BRANCH   1   8
ATOM      7  C   UNL     1       0.395   1.390  -5.705  0.00  0.00    +0.000 C 
ATOM      8  O   UNL     1       0.385  -0.021  -5.388  0.00  0.00    +0.000 OA
ENDBRANCH   1   8
BRANCH   4   9
ATOM      9  C   UNL     1      -2.394  -1.796  -0.810  0.00  0.00    +0.000 C 
ATOM     10  O   UNL     1      -3.210  -1.064  -0.291  0.00  0.00    +0.000 OA
BRANCH   9  11
ATOM     11  C   UNL     1      -2.181  -3.147  -0.249  0.00  0.00    +0.000 A 
ATOM     12  C   UNL     1      -2.391  -3.372   1.108  0.00  0.00    +0.000 A 
ATOM     13  C   UNL     1      -2.200  -4.647   1.633  0.00  0.00    +0.000 A 
ATOM     14  C   UNL     1      -1.767  -5.692   0.829  0.00  0.00    +0.000 A 
ATOM     15  C   UNL     1      -1.520  -5.450  -0.514  0.00  0.00    +0.000 A 
ATOM     16  C   UNL     1      -1.730  -4.181  -1.054  0.00  0.00    +0.000 A 
ENDBRANCH   9  11
ENDBRANCH   4   9
BRANCH   5  17
ATOM     17  O   UNL     1      -3.637  -1.470  -3.303  0.00  0.00    +0.000 OA
ATOM     18  H   UNL     1      -3.931  -2.390  -3.522  0.00  0.00    +0.000 HD
ENDBRANCH   5  17
TORSDOF 4
ENDMDL
MODEL 6
REMARK VINA RESULT:      -4.7     10.658     12.620
REMARK  Name = ox2_esm1_f8_ligand
REMARK  5 active torsions:
REMARK  status: ('A' for Active; 'I' for Inactive)
REMARK    1  A    between atoms: C_1  and  O_2
REMARK    2  A    between atoms: O_2  and  C_3
REMARK    3  A    between atoms: C_6  and  C_7
REMARK    4  A    between atoms: C_7  and  C_9
REMARK    5  A    between atoms: C_15  and  O_16
REMARK                            x       y       z     vdW  Elec       q    Type
REMARK                         _______ _______ _______ _____ _____    ______ ____
ROOT
ATOM      1  C   UNL     1      -2.089  -4.762   1.460  0.00  0.00    +0.000 A 
ATOM      2  C   UNL     1      -2.617  -3.473   1.497  0.00  0.00    +0.000 A 
ATOM      3  C   UNL     1      -2.853  -2.783   0.322  0.00  0.00    +0.000 A 
ATOM      4  C   UNL     1      -2.553  -3.359  -0.899  0.00  0.00    +0.000 A 
ATOM      5  C   UNL     1      -2.023  -4.657  -0.945  0.00  0.00    +0.000 A 
ATOM      6  C   UNL     1      -1.800  -5.347   0.246  0.00  0.00    +0.000 A 
ENDROOT
BRANCH   1   8
ATOM      7  C   UNL     1      -1.783  -6.930   2.505  0.00  0.00    +0.000 C 
ATOM      8  O   UNL     1      -1.845  -5.488   2.589  0.00  0.00    +0.000 OA
ENDBRANCH   1   8
BRANCH   4   9
ATOM      9  C   UNL     1      -2.792  -2.622  -2.177  0.00  0.00    +0.000 C 
ATOM     10  O   UNL     1      -3.849  -2.752  -2.757  0.00  0.00    +0.000 OA
BRANCH   9  11
ATOM     11  C   UNL     1      -1.767  -1.721  -2.746  0.00  0.00    +0.000 A 
ATOM     12  C   UNL     1      -1.845  -1.343  -4.083  0.00  0.00    +0.000 A 
ATOM     13  C   UNL     1      -0.884  -0.488  -4.614  0.00  0.00    +0.000 A 
ATOM     14  C   UNL     1       0.174  -0.033  -3.839  0.00  0.00    +0.000 A 
ATOM     15  C   UNL     1       0.267  -0.448  -2.520  0.00  0.00    +0.000 A 
ATOM     16  C   UNL     1      -0.702  -1.287  -1.972  0.00  0.00    +0.000 A 
ENDBRANCH   9  11
ENDBRANCH   4   9
BRANCH   5  17
ATOM     17  O   UNL     1      -1.739  -5.222  -2.158  0.00  0.00    +0.000 OA
ATOM     18  H   UNL     1      -2.223  -6.034  -2.452  0.00  0.00    +0.000 HD
ENDBRANCH   5  17
TORSDOF 4
ENDMDL
MODEL 7
REMARK VINA RESULT:      -4.6      9.071     11.401
REMARK  Name = ox2_esm1_f8_ligand
REMARK  5 active torsions:
REMARK  status: ('A' for Active; 'I' for Inactive)
REMARK    1  A    between atoms: C_1  and  O_2
REMARK    2  A    between atoms: O_2  and  C_3
REMARK    3  A    between atoms: C_6  and  C_7
REMARK    4  A    between atoms: C_7  and  C_9
REMARK    5  A    between atoms: C_15  and  O_16
REMARK                            x       y       z     vdW  Elec       q    Type
REMARK                         _______ _______ _______ _____ _____    ______ ____
ROOT
ATOM      1  C   UNL     1      -2.382  -2.080  -1.054  0.00  0.00    +0.000 A 
ATOM      2  C   UNL     1      -2.882  -1.177  -1.990  0.00  0.00    +0.000 A 
ATOM      3  C   UNL     1      -2.119  -0.818  -3.087  0.00  0.00    +0.000 A 
ATOM      4  C   UNL     1      -0.849  -1.339  -3.255  0.00  0.00    +0.000 A 
ATOM      5  C   UNL     1      -0.340  -2.250  -2.318  0.00  0.00    +0.000 A 
ATOM      6  C   UNL     1      -1.123  -2.613  -1.222  0.00  0.00    +0.000 A 
ENDROOT
BRANCH   1   8
ATOM      7  C   UNL     1      -2.596  -3.548   0.866  0.00  0.00    +0.000 C 
ATOM      8  O   UNL     1      -3.097  -2.473   0.040  0.00  0.00    +0.000 OA
ENDBRANCH   1   8
BRANCH   4   9
ATOM      9  C   UNL     1      -0.008  -0.953  -4.429  0.00  0.00    +0.000 C 
ATOM     10  O   UNL     1       0.386  -1.808  -5.193  0.00  0.00    +0.000 OA
BRANCH   9  11
ATOM     11  C   UNL     1       0.344   0.460  -4.688  0.00  0.00    +0.000 A 
ATOM     12  C   UNL     1       0.984   1.203  -3.701  0.00  0.00    +0.000 A 
ATOM     13  C   UNL     1       1.323   2.531  -3.949  0.00  0.00    +0.000 A 
ATOM     14  C   UNL     1       1.001   3.136  -5.156  0.00  0.00    +0.000 A 
ATOM     15  C   UNL     1       0.326   2.400  -6.118  0.00  0.00    +0.000 A 
ATOM     16  C   UNL     1       0.000   1.063  -5.887  0.00  0.00    +0.000 A 
ENDBRANCH   9  11
ENDBRANCH   4   9
BRANCH   5  17
ATOM     17  O   UNL     1       0.914  -2.767  -2.498  0.00  0.00    +0.000 OA
ATOM     18  H   UNL     1       1.204  -3.059  -3.399  0.00  0.00    +0.000 HD
ENDBRANCH   5  17
TORSDOF 4
ENDMDL
MODEL 8
REMARK VINA RESULT:      -4.6      8.266     10.130
REMARK  Name = ox2_esm1_f8_ligand
REMARK  5 active torsions:
REMARK  status: ('A' for Active; 'I' for Inactive)
REMARK    1  A    between atoms: C_1  and  O_2
REMARK    2  A    between atoms: O_2  and  C_3
REMARK    3  A    between atoms: C_6  and  C_7
REMARK    4  A    between atoms: C_7  and  C_9
REMARK    5  A    between atoms: C_15  and  O_16
REMARK                            x       y       z     vdW  Elec       q    Type
REMARK                         _______ _______ _______ _____ _____    ______ ____
ROOT
ATOM      1  C   UNL     1       3.259   3.340  -5.633  0.00  0.00    +0.000 A 
ATOM      2  C   UNL     1       3.518   2.009  -5.313  0.00  0.00    +0.000 A 
ATOM      3  C   UNL     1       2.498   1.075  -5.340  0.00  0.00    +0.000 A 
ATOM      4  C   UNL     1       1.209   1.457  -5.668  0.00  0.00    +0.000 A 
ATOM      5  C   UNL     1       0.941   2.795  -5.993  0.00  0.00    +0.000 A 
ATOM      6  C   UNL     1       1.980   3.724  -5.973  0.00  0.00    +0.000 A 
ENDROOT
BRANCH   1   8
ATOM      7  C   UNL     1       4.290   5.243  -4.538  0.00  0.00    +0.000 C 
ATOM      8  O   UNL     1       4.231   4.298  -5.630  0.00  0.00    +0.000 OA
ENDBRANCH   1   8
BRANCH   4   9
ATOM      9  C   UNL     1       0.094   0.462  -5.690  0.00  0.00    +0.000 C 
ATOM     10  O   UNL     1      -0.425   0.164  -6.745  0.00  0.00    +0.000 OA
BRANCH   9  11
ATOM     11  C   UNL     1      -0.384  -0.182  -4.448  0.00  0.00    +0.000 A 
ATOM     12  C   UNL     1      -1.625  -0.811  -4.429  0.00  0.00    +0.000 A 
ATOM     13  C   UNL     1      -2.070  -1.424  -3.261  0.00  0.00    +0.000 A 
ATOM     14  C   UNL     1      -1.308  -1.387  -2.101  0.00  0.00    +0.000 A 
ATOM     15  C   UNL     1      -0.092  -0.722  -2.116  0.00  0.00    +0.000 A 
ATOM     16  C   UNL     1       0.372  -0.123  -3.288  0.00  0.00    +0.000 A 
ENDBRANCH   9  11
ENDBRANCH   4   9
BRANCH   5  17
ATOM     17  O   UNL     1      -0.335   3.160  -6.325  0.00  0.00    +0.000 OA
ATOM     18  H   UNL     1      -0.496   3.730  -7.118  0.00  0.00    +0.000 HD
ENDBRANCH   5  17
TORSDOF 4
ENDMDL
MODEL 9
REMARK VINA RESULT:      -4.5     10.840     12.636
REMARK  Name = ox2_esm1_f8_ligand
REMARK  5 active torsions:
REMARK  status: ('A' for Active; 'I' for Inactive)
REMARK    1  A    between atoms: C_1  and  O_2
REMARK    2  A    between atoms: O_2  and  C_3
REMARK    3  A    between atoms: C_6  and  C_7
REMARK    4  A    between atoms: C_7  and  C_9
REMARK    5  A    between atoms: C_15  and  O_16
REMARK                            x       y       z     vdW  Elec       q    Type
REMARK                         _______ _______ _______ _____ _____    ______ ____
ROOT
ATOM      1  C   UNL     1      -1.463  -5.979   1.348  0.00  0.00    +0.000 A 
ATOM      2  C   UNL     1      -1.014  -6.088   0.033  0.00  0.00    +0.000 A 
ATOM      3  C   UNL     1      -1.417  -5.169  -0.918  0.00  0.00    +0.000 A 
ATOM      4  C   UNL     1      -2.281  -4.144  -0.578  0.00  0.00    +0.000 A 
ATOM      5  C   UNL     1      -2.736  -4.026   0.743  0.00  0.00    +0.000 A 
ATOM      6  C   UNL     1      -2.314  -4.953   1.696  0.00  0.00    +0.000 A 
ENDROOT
BRANCH   1   8
ATOM      7  C   UNL     1       0.046  -7.721   2.104  0.00  0.00    +0.000 C 
ATOM      8  O   UNL     1      -1.090  -6.855   2.326  0.00  0.00    +0.000 OA
ENDBRANCH   1   8
BRANCH   4   9
ATOM      9  C   UNL     1      -2.734  -3.149  -1.598  0.00  0.00    +0.000 C 
ATOM     10  O   UNL     1      -3.897  -3.129  -1.943  0.00  0.00    +0.000 OA
BRANCH   9  11
ATOM     11  C   UNL     1      -1.793  -2.174  -2.189  0.00  0.00    +0.000 A 
ATOM     12  C   UNL     1      -0.885  -1.508  -1.371  0.00  0.00    +0.000 A 
ATOM     13  C   UNL     1       0.006  -0.597  -1.930  0.00  0.00    +0.000 A 
ATOM     14  C   UNL     1      -0.018  -0.316  -3.289  0.00  0.00    +0.000 A 
ATOM     15  C   UNL     1      -0.953  -0.953  -4.090  0.00  0.00    +0.000 A 
ATOM     16  C   UNL     1      -1.837  -1.883  -3.543  0.00  0.00    +0.000 A 
ENDBRANCH   9  11
ENDBRANCH   4   9
BRANCH   5  17
ATOM     17  O   UNL     1      -3.583  -3.003   1.072  0.00  0.00    +0.000 OA
ATOM     18  H   UNL     1      -3.354  -2.072   0.824  0.00  0.00    +0.000 HD
ENDBRANCH   5  17
TORSDOF 4
ENDMDL
