REMARK  Name = s3_orig_f12_ligand
REMARK  12 active torsions:
REMARK  status: ('A' for Active; 'I' for Inactive)
REMARK    1  A    between atoms: C_1  and  C_2
REMARK    2  A    between atoms: C_2  and  C_3
REMARK    3  A    between atoms: C_3  and  C_4
REMARK    4  A    between atoms: C_4  and  C_5
REMARK    5  A    between atoms: C_5  and  C_6
REMARK    6  A    between atoms: C_5  and  O_8
REMARK    7  A    between atoms: C_6  and  C_7
REMARK    8  A    between atoms: O_8  and  C_9
REMARK    9  A    between atoms: C_9  and  C_11
REMARK   10  A    between atoms: C_12  and  C_13
REMARK   11  A    between atoms: C_16  and  O_17
REMARK   12  A    between atoms: O_17  and  C_18
REMARK                            x       y       z     vdW  Elec       q    Type
REMARK                         _______ _______ _______ _____ _____    ______ ____
ROOT
ATOM      1  C   UNL     1     -10.895  -2.434  -8.188  0.00  0.00    +0.000 C 
ATOM      2  O   UNL     1     -11.554  -2.751  -7.231  0.00  0.00    +0.000 OA
ENDROOT
BRANCH   1   3
ATOM      3  C   UNL     1     -11.035  -1.147  -8.907  0.00  0.00    +0.000 C 
ATOM      4  C   UNL     1     -11.920  -0.224  -8.536  0.00  0.00    +0.000 C 
BRANCH   4   5
ATOM      5  C   UNL     1     -12.173   1.039  -9.274  0.00  0.00    +0.000 A 
ATOM      6  C   UNL     1     -13.314   1.772  -8.991  0.00  0.00    +0.000 A 
ATOM      7  C   UNL     1     -13.619   2.914  -9.722  0.00  0.00    +0.000 A 
ATOM      8  C   UNL     1     -12.762   3.375 -10.700  0.00  0.00    +0.000 A 
ATOM      9  C   UNL     1     -11.609   2.676 -10.941  0.00  0.00    +0.000 A 
ATOM     10  C   UNL     1     -11.314   1.512 -10.233  0.00  0.00    +0.000 A 
BRANCH   8  11
ATOM     11  O   UNL     1     -13.015   4.513 -11.439  0.00  0.00    +0.000 OA
ATOM     12  C   UNL     1     -14.368   4.851 -11.682  0.00  0.00    +0.000 C 
ENDBRANCH   8  11
ENDBRANCH   4   5
ENDBRANCH   1   3
BRANCH   1  13
ATOM     13  O   UNL     1     -10.068  -3.245  -8.626  0.00  0.00    +0.000 OA
BRANCH  13  14
ATOM     14  C   UNL     1      -9.326  -4.317  -8.828  0.00  0.00    +0.000 C 
BRANCH  14  15
ATOM     15  C   UNL     1      -8.700  -4.775  -7.524  0.00  0.00    +0.000 C 
ATOM     16  C   UNL     1      -7.893  -6.063  -7.641  0.00  0.00    +0.000 C 
ENDBRANCH  14  15
BRANCH  14  17
ATOM     17  C   UNL     1     -10.131  -5.449  -9.446  0.00  0.00    +0.000 C 
BRANCH  17  18
ATOM     18  C   UNL     1     -11.088  -5.031 -10.513  0.00  0.00    +0.000 C 
BRANCH  18  20
ATOM     19  C   UNL     1     -12.321  -5.672 -12.590  0.00  0.00    +0.000 C 
ATOM     20  C   UNL     1     -11.324  -6.109 -11.540  0.00  0.00    +0.000 C 
ENDBRANCH  18  20
ENDBRANCH  17  18
ENDBRANCH  14  17
ENDBRANCH  13  14
ENDBRANCH   1  13
TORSDOF 9
