MODEL 1
REMARK VINA RESULT:      -2.3      0.000      0.000
REMARK  Name = s3_orig_f12_ligand
REMARK  12 active torsions:
REMARK  status: ('A' for Active; 'I' for Inactive)
REMARK    1  A    between atoms: C_1  and  C_2
REMARK    2  A    between atoms: C_2  and  C_3
REMARK    3  A    between atoms: C_3  and  C_4
REMARK    4  A    between atoms: C_4  and  C_5
REMARK    5  A    between atoms: C_5  and  C_6
REMARK    6  A    between atoms: C_5  and  O_8
REMARK    7  A    between atoms: C_6  and  C_7
REMARK    8  A    between atoms: O_8  and  C_9
REMARK    9  A    between atoms: C_9  and  C_11
REMARK   10  A    between atoms: C_12  and  C_13
REMARK   11  A    between atoms: C_16  and  O_17
REMARK   12  A    between atoms: O_17  and  C_18
REMARK                            x       y       z     vdW  Elec       q    Type
REMARK                         _______ _______ _______ _____ _____    ______ ____
ROOT
ATOM      1  C   UNL     1      -7.645   0.629 -11.482  0.00  0.00    +0.000 C 
ATOM      2  O   UNL     1      -6.619   0.683 -10.853  0.00  0.00    +0.000 OA
ENDROOT
BRANCH   1   3
ATOM      3  C   UNL     1      -7.714   0.512 -12.956  0.00  0.00    +0.000 C 
ATOM      4  C   UNL     1      -8.298   1.440 -13.711  0.00  0.00    +0.000 C 
BRANCH   4   5
ATOM      5  C   UNL     1      -8.484   1.330 -15.180  0.00  0.00    +0.000 A 
ATOM      6  C   UNL     1      -7.769   2.170 -16.018  0.00  0.00    +0.000 A 
ATOM      7  C   UNL     1      -7.983   2.147 -17.391  0.00  0.00    +0.000 A 
ATOM      8  C   UNL     1      -8.863   1.245 -17.952  0.00  0.00    +0.000 A 
ATOM      9  C   UNL     1      -9.530   0.381 -17.125  0.00  0.00    +0.000 A 
ATOM     10  C   UNL     1      -9.343   0.422 -15.744  0.00  0.00    +0.000 A 
BRANCH   8  11
ATOM     11  O   UNL     1      -9.095   1.174 -19.311  0.00  0.00    +0.000 OA
ATOM     12  C   UNL     1     -10.281   0.534 -19.743  0.00  0.00    +0.000 C 
ENDBRANCH   8  11
ENDBRANCH   4   5
ENDBRANCH   1   3
BRANCH   1  13
ATOM     13  O   UNL     1      -8.716   0.710 -10.865  0.00  0.00    +0.000 OA
BRANCH  13  14
ATOM     14  C   UNL     1      -9.752   1.144 -10.173  0.00  0.00    +0.000 C 
BRANCH  14  15
ATOM     15  C   UNL     1      -9.602   2.624  -9.875  0.00  0.00    +0.000 C 
ATOM     16  C   UNL     1      -9.992   3.534 -11.034  0.00  0.00    +0.000 C 
ENDBRANCH  14  15
BRANCH  14  17
ATOM     17  C   UNL     1     -11.061   0.889 -10.903  0.00  0.00    +0.000 C 
BRANCH  17  18
ATOM     18  C   UNL     1     -11.094  -0.361 -11.719  0.00  0.00    +0.000 C 
BRANCH  18  20
ATOM     19  C   UNL     1     -12.047   1.296 -13.329  0.00  0.00    +0.000 C 
ATOM     20  C   UNL     1     -11.742  -0.162 -13.066  0.00  0.00    +0.000 C 
ENDBRANCH  18  20
ENDBRANCH  17  18
ENDBRANCH  14  17
ENDBRANCH  13  14
ENDBRANCH   1  13
TORSDOF 9
ENDMDL
MODEL 2
REMARK VINA RESULT:      -2.1      8.392     12.009
REMARK  Name = s3_orig_f12_ligand
REMARK  12 active torsions:
REMARK  status: ('A' for Active; 'I' for Inactive)
REMARK    1  A    between atoms: C_1  and  C_2
REMARK    2  A    between atoms: C_2  and  C_3
REMARK    3  A    between atoms: C_3  and  C_4
REMARK    4  A    between atoms: C_4  and  C_5
REMARK    5  A    between atoms: C_5  and  C_6
REMARK    6  A    between atoms: C_5  and  O_8
REMARK    7  A    between atoms: C_6  and  C_7
REMARK    8  A    between atoms: O_8  and  C_9
REMARK    9  A    between atoms: C_9  and  C_11
REMARK   10  A    between atoms: C_12  and  C_13
REMARK   11  A    between atoms: C_16  and  O_17
REMARK   12  A    between atoms: O_17  and  C_18
REMARK                            x       y       z     vdW  Elec       q    Type
REMARK                         _______ _______ _______ _____ _____    ______ ____
ROOT
ATOM      1  C   UNL     1      -3.913  -2.625  -9.863  0.00  0.00    +0.000 C 
ATOM      2  O   UNL     1      -3.812  -1.439 -10.048  0.00  0.00    +0.000 OA
ENDROOT
BRANCH   1   3
ATOM      3  C   UNL     1      -3.753  -3.280  -8.545  0.00  0.00    +0.000 C 
ATOM      4  C   UNL     1      -2.707  -4.054  -8.263  0.00  0.00    +0.000 C 
BRANCH   4   5
ATOM      5  C   UNL     1      -2.542  -4.813  -6.998  0.00  0.00    +0.000 A 
ATOM      6  C   UNL     1      -1.268  -5.033  -6.501  0.00  0.00    +0.000 A 
ATOM      7  C   UNL     1      -1.078  -5.809  -5.364  0.00  0.00    +0.000 A 
ATOM      8  C   UNL     1      -2.155  -6.324  -4.673  0.00  0.00    +0.000 A 
ATOM      9  C   UNL     1      -3.416  -6.061  -5.139  0.00  0.00    +0.000 A 
ATOM     10  C   UNL     1      -3.611  -5.310  -6.297  0.00  0.00    +0.000 A 
BRANCH   8  11
ATOM     11  O   UNL     1      -2.015  -7.085  -3.531  0.00  0.00    +0.000 OA
ATOM     12  C   UNL     1      -2.976  -6.913  -2.505  0.00  0.00    +0.000 C 
ENDBRANCH   8  11
ENDBRANCH   4   5
ENDBRANCH   1   3
BRANCH   1  13
ATOM     13  O   UNL     1      -4.131  -3.355 -10.840  0.00  0.00    +0.000 OA
BRANCH  13  14
ATOM     14  C   UNL     1      -4.582  -4.300 -11.642  0.00  0.00    +0.000 C 
BRANCH  14  15
ATOM     15  C   UNL     1      -4.553  -3.823 -13.082  0.00  0.00    +0.000 C 
ATOM     16  C   UNL     1      -3.432  -4.432 -13.916  0.00  0.00    +0.000 C 
ENDBRANCH  14  15
BRANCH  14  17
ATOM     17  C   UNL     1      -3.781  -5.585 -11.502  0.00  0.00    +0.000 C 
BRANCH  17  18
ATOM     18  C   UNL     1      -4.570  -6.773 -11.060  0.00  0.00    +0.000 C 
BRANCH  18  20
ATOM     19  C   UNL     1      -5.922  -6.497  -8.976  0.00  0.00    +0.000 C 
ATOM     20  C   UNL     1      -4.596  -6.931  -9.561  0.00  0.00    +0.000 C 
ENDBRANCH  18  20
ENDBRANCH  17  18
ENDBRANCH  14  17
ENDBRANCH  13  14
ENDBRANCH   1  13
TORSDOF 9
ENDMDL
MODEL 3
REMARK VINA RESULT:      -2.1      6.468      8.666
REMARK  Name = s3_orig_f12_ligand
REMARK  12 active torsions:
REMARK  status: ('A' for Active; 'I' for Inactive)
REMARK    1  A    between atoms: C_1  and  C_2
REMARK    2  A    between atoms: C_2  and  C_3
REMARK    3  A    between atoms: C_3  and  C_4
REMARK    4  A    between atoms: C_4  and  C_5
REMARK    5  A    between atoms: C_5  and  C_6
REMARK    6  A    between atoms: C_5  and  O_8
REMARK    7  A    between atoms: C_6  and  C_7
REMARK    8  A    between atoms: O_8  and  C_9
REMARK    9  A    between atoms: C_9  and  C_11
REMARK   10  A    between atoms: C_12  and  C_13
REMARK   11  A    between atoms: C_16  and  O_17
REMARK   12  A    between atoms: O_17  and  C_18
REMARK                            x       y       z     vdW  Elec       q    Type
REMARK                         _______ _______ _______ _____ _____    ______ ____
ROOT
ATOM      1  C   UNL     1      -4.623  -5.400 -13.060  0.00  0.00    +0.000 C 
ATOM      2  O   UNL     1      -5.382  -6.140 -13.631  0.00  0.00    +0.000 OA
ENDROOT
BRANCH   1   3
ATOM      3  C   UNL     1      -4.641  -3.925 -13.190  0.00  0.00    +0.000 C 
ATOM      4  C   UNL     1      -3.574  -3.240 -13.597  0.00  0.00    +0.000 C 
BRANCH   4   5
ATOM      5  C   UNL     1      -3.502  -1.758 -13.653  0.00  0.00    +0.000 A 
ATOM      6  C   UNL     1      -4.480  -1.007 -13.022  0.00  0.00    +0.000 A 
ATOM      7  C   UNL     1      -4.484   0.378 -13.126  0.00  0.00    +0.000 A 
ATOM      8  C   UNL     1      -3.481   1.037 -13.807  0.00  0.00    +0.000 A 
ATOM      9  C   UNL     1      -2.487   0.294 -14.386  0.00  0.00    +0.000 A 
ATOM     10  C   UNL     1      -2.495  -1.098 -14.312  0.00  0.00    +0.000 A 
BRANCH   8  11
ATOM     11  O   UNL     1      -3.435   2.412 -13.922  0.00  0.00    +0.000 OA
ATOM     12  C   UNL     1      -2.603   2.959 -14.928  0.00  0.00    +0.000 C 
ENDBRANCH   8  11
ENDBRANCH   4   5
ENDBRANCH   1   3
BRANCH   1  13
ATOM     13  O   UNL     1      -3.746  -5.899 -12.342  0.00  0.00    +0.000 OA
BRANCH  13  14
ATOM     14  C   UNL     1      -2.647  -6.479 -11.898  0.00  0.00    +0.000 C 
BRANCH  14  15
ATOM     15  C   UNL     1      -1.591  -6.503 -12.987  0.00  0.00    +0.000 C 
ATOM     16  C   UNL     1      -0.603  -5.344 -12.921  0.00  0.00    +0.000 C 
ENDBRANCH  14  15
BRANCH  14  17
ATOM     17  C   UNL     1      -2.104  -5.781 -10.661  0.00  0.00    +0.000 C 
BRANCH  17  18
ATOM     18  C   UNL     1      -3.080  -4.894  -9.960  0.00  0.00    +0.000 C 
BRANCH  18  20
ATOM     19  C   UNL     1      -3.857  -2.534  -9.698  0.00  0.00    +0.000 C 
ATOM     20  C   UNL     1      -2.687  -3.440 -10.011  0.00  0.00    +0.000 C 
ENDBRANCH  18  20
ENDBRANCH  17  18
ENDBRANCH  14  17
ENDBRANCH  13  14
ENDBRANCH   1  13
TORSDOF 9
ENDMDL
MODEL 4
REMARK VINA RESULT:      -2.1      7.565     11.297
REMARK  Name = s3_orig_f12_ligand
REMARK  12 active torsions:
REMARK  status: ('A' for Active; 'I' for Inactive)
REMARK    1  A    between atoms: C_1  and  C_2
REMARK    2  A    between atoms: C_2  and  C_3
REMARK    3  A    between atoms: C_3  and  C_4
REMARK    4  A    between atoms: C_4  and  C_5
REMARK    5  A    between atoms: C_5  and  C_6
REMARK    6  A    between atoms: C_5  and  O_8
REMARK    7  A    between atoms: C_6  and  C_7
REMARK    8  A    between atoms: O_8  and  C_9
REMARK    9  A    between atoms: C_9  and  C_11
REMARK   10  A    between atoms: C_12  and  C_13
REMARK   11  A    between atoms: C_16  and  O_17
REMARK   12  A    between atoms: O_17  and  C_18
REMARK                            x       y       z     vdW  Elec       q    Type
REMARK                         _______ _______ _______ _____ _____    ______ ____
ROOT
ATOM      1  C   UNL     1      -2.611  -1.649 -11.083  0.00  0.00    +0.000 C 
ATOM      2  O   UNL     1      -2.581  -0.462 -10.877  0.00  0.00    +0.000 OA
ENDROOT
BRANCH   1   3
ATOM      3  C   UNL     1      -2.366  -2.680 -10.049  0.00  0.00    +0.000 C 
ATOM      4  C   UNL     1      -3.207  -2.878  -9.036  0.00  0.00    +0.000 C 
BRANCH   4   5
ATOM      5  C   UNL     1      -2.967  -3.827  -7.920  0.00  0.00    +0.000 A 
ATOM      6  C   UNL     1      -4.016  -4.601  -7.452  0.00  0.00    +0.000 A 
ATOM      7  C   UNL     1      -3.841  -5.437  -6.355  0.00  0.00    +0.000 A 
ATOM      8  C   UNL     1      -2.607  -5.560  -5.751  0.00  0.00    +0.000 A 
ATOM      9  C   UNL     1      -1.560  -4.831  -6.251  0.00  0.00    +0.000 A 
ATOM     10  C   UNL     1      -1.737  -3.967  -7.330  0.00  0.00    +0.000 A 
BRANCH   8  11
ATOM     11  O   UNL     1      -2.383  -6.390  -4.672  0.00  0.00    +0.000 OA
ATOM     12  C   UNL     1      -1.039  -6.677  -4.332  0.00  0.00    +0.000 C 
ENDBRANCH   8  11
ENDBRANCH   4   5
ENDBRANCH   1   3
BRANCH   1  13
ATOM     13  O   UNL     1      -2.826  -2.039 -12.238  0.00  0.00    +0.000 OA
BRANCH  13  14
ATOM     14  C   UNL     1      -3.401  -2.422 -13.362  0.00  0.00    +0.000 C 
BRANCH  14  15
ATOM     15  C   UNL     1      -2.406  -3.163 -14.235  0.00  0.00    +0.000 C 
ATOM     16  C   UNL     1      -1.626  -2.266 -15.189  0.00  0.00    +0.000 C 
ENDBRANCH  14  15
BRANCH  14  17
ATOM     17  C   UNL     1      -4.618  -3.295 -13.101  0.00  0.00    +0.000 C 
BRANCH  17  18
ATOM     18  C   UNL     1      -4.316  -4.733 -12.838  0.00  0.00    +0.000 C 
BRANCH  18  20
ATOM     19  C   UNL     1      -3.798  -6.145 -10.842  0.00  0.00    +0.000 C 
ATOM     20  C   UNL     1      -4.781  -5.187 -11.478  0.00  0.00    +0.000 C 
ENDBRANCH  18  20
ENDBRANCH  17  18
ENDBRANCH  14  17
ENDBRANCH  13  14
ENDBRANCH   1  13
TORSDOF 9
ENDMDL
MODEL 5
REMARK VINA RESULT:      -2.1      2.158      4.052
REMARK  Name = s3_orig_f12_ligand
REMARK  12 active torsions:
REMARK  status: ('A' for Active; 'I' for Inactive)
REMARK    1  A    between atoms: C_1  and  C_2
REMARK    2  A    between atoms: C_2  and  C_3
REMARK    3  A    between atoms: C_3  and  C_4
REMARK    4  A    between atoms: C_4  and  C_5
REMARK    5  A    between atoms: C_5  and  C_6
REMARK    6  A    between atoms: C_5  and  O_8
REMARK    7  A    between atoms: C_6  and  C_7
REMARK    8  A    between atoms: O_8  and  C_9
REMARK    9  A    between atoms: C_9  and  C_11
REMARK   10  A    between atoms: C_12  and  C_13
REMARK   11  A    between atoms: C_16  and  O_17
REMARK   12  A    between atoms: O_17  and  C_18
REMARK                            x       y       z     vdW  Elec       q    Type
REMARK                         _______ _______ _______ _____ _____    ______ ____
ROOT
ATOM      1  C   UNL     1      -8.072   0.823 -11.130  0.00  0.00    +0.000 C 
ATOM      2  O   UNL     1      -8.548   1.144 -10.071  0.00  0.00    +0.000 OA
ENDROOT
BRANCH   1   3
ATOM      3  C   UNL     1      -8.844   0.701 -12.388  0.00  0.00    +0.000 C 
ATOM      4  C   UNL     1      -8.257   0.743 -13.583  0.00  0.00    +0.000 C 
BRANCH   4   5
ATOM      5  C   UNL     1      -8.986   0.725 -14.875  0.00  0.00    +0.000 A 
ATOM      6  C   UNL     1      -8.427   1.351 -15.978  0.00  0.00    +0.000 A 
ATOM      7  C   UNL     1      -9.122   1.421 -17.179  0.00  0.00    +0.000 A 
ATOM      8  C   UNL     1     -10.355   0.816 -17.316  0.00  0.00    +0.000 A 
ATOM      9  C   UNL     1     -10.882   0.154 -16.239  0.00  0.00    +0.000 A 
ATOM     10  C   UNL     1     -10.203   0.108 -15.022  0.00  0.00    +0.000 A 
BRANCH   8  11
ATOM     11  O   UNL     1     -11.074   0.846 -18.494  0.00  0.00    +0.000 OA
ATOM     12  C   UNL     1     -12.389   0.321 -18.473  0.00  0.00    +0.000 C 
ENDBRANCH   8  11
ENDBRANCH   4   5
ENDBRANCH   1   3
BRANCH   1  13
ATOM     13  O   UNL     1      -6.867   0.541 -11.170  0.00  0.00    +0.000 OA
BRANCH  13  14
ATOM     14  C   UNL     1      -5.554   0.563 -11.046  0.00  0.00    +0.000 C 
BRANCH  14  15
ATOM     15  C   UNL     1      -4.953  -0.717 -11.596  0.00  0.00    +0.000 C 
ATOM     16  C   UNL     1      -4.263  -1.580 -10.547  0.00  0.00    +0.000 C 
ENDBRANCH  14  15
BRANCH  14  17
ATOM     17  C   UNL     1      -4.944   1.768 -11.744  0.00  0.00    +0.000 C 
BRANCH  17  18
ATOM     18  C   UNL     1      -4.473   1.516 -13.138  0.00  0.00    +0.000 C 
BRANCH  18  20
ATOM     19  C   UNL     1      -5.876   3.553 -13.489  0.00  0.00    +0.000 C 
ATOM     20  C   UNL     1      -5.143   2.408 -14.151  0.00  0.00    +0.000 C 
ENDBRANCH  18  20
ENDBRANCH  17  18
ENDBRANCH  14  17
ENDBRANCH  13  14
ENDBRANCH   1  13
TORSDOF 9
ENDMDL
MODEL 6
REMARK VINA RESULT:      -2.1      6.460      8.579
REMARK  Name = s3_orig_f12_ligand
REMARK  12 active torsions:
REMARK  status: ('A' for Active; 'I' for Inactive)
REMARK    1  A    between atoms: C_1  and  C_2
REMARK    2  A    between atoms: C_2  and  C_3
REMARK    3  A    between atoms: C_3  and  C_4
REMARK    4  A    between atoms: C_4  and  C_5
REMARK    5  A    between atoms: C_5  and  C_6
REMARK    6  A    between atoms: C_5  and  O_8
REMARK    7  A    between atoms: C_6  and  C_7
REMARK    8  A    between atoms: O_8  and  C_9
REMARK    9  A    between atoms: C_9  and  C_11
REMARK   10  A    between atoms: C_12  and  C_13
REMARK   11  A    between atoms: C_16  and  O_17
REMARK   12  A    between atoms: O_17  and  C_18
REMARK                            x       y       z     vdW  Elec       q    Type
REMARK                         _______ _______ _______ _____ _____    ______ ____
ROOT
ATOM      1  C   UNL     1      -4.839  -5.703 -13.344  0.00  0.00    +0.000 C 
ATOM      2  O   UNL     1      -5.574  -6.251 -14.125  0.00  0.00    +0.000 OA
ENDROOT
BRANCH   1   3
ATOM      3  C   UNL     1      -4.143  -4.423 -13.612  0.00  0.00    +0.000 C 
ATOM      4  C   UNL     1      -4.584  -3.265 -13.124  0.00  0.00    +0.000 C 
BRANCH   4   5
ATOM      5  C   UNL     1      -3.986  -1.943 -13.438  0.00  0.00    +0.000 A 
ATOM      6  C   UNL     1      -2.805  -1.887 -14.159  0.00  0.00    +0.000 A 
ATOM      7  C   UNL     1      -2.180  -0.669 -14.397  0.00  0.00    +0.000 A 
ATOM      8  C   UNL     1      -2.754   0.513 -13.975  0.00  0.00    +0.000 A 
ATOM      9  C   UNL     1      -3.949   0.457 -13.308  0.00  0.00    +0.000 A 
ATOM     10  C   UNL     1      -4.564  -0.765 -13.038  0.00  0.00    +0.000 A 
BRANCH   8  11
ATOM     11  O   UNL     1      -2.179   1.746 -14.204  0.00  0.00    +0.000 OA
ATOM     12  C   UNL     1      -2.044   2.623 -13.100  0.00  0.00    +0.000 C 
ENDBRANCH   8  11
ENDBRANCH   4   5
ENDBRANCH   1   3
BRANCH   1  13
ATOM     13  O   UNL     1      -4.619  -6.255 -12.258  0.00  0.00    +0.000 OA
BRANCH  13  14
ATOM     14  C   UNL     1      -4.456  -6.509 -10.973  0.00  0.00    +0.000 C 
BRANCH  14  15
ATOM     15  C   UNL     1      -3.035  -6.972 -10.707  0.00  0.00    +0.000 C 
ATOM     16  C   UNL     1      -2.939  -8.375 -10.119  0.00  0.00    +0.000 C 
ENDBRANCH  14  15
BRANCH  14  17
ATOM     17  C   UNL     1      -4.779  -5.297 -10.115  0.00  0.00    +0.000 C 
BRANCH  17  18
ATOM     18  C   UNL     1      -3.590  -4.553  -9.603  0.00  0.00    +0.000 C 
BRANCH  18  20
ATOM     19  C   UNL     1      -2.600  -2.302 -10.049  0.00  0.00    +0.000 C 
ATOM     20  C   UNL     1      -3.810  -3.063  -9.555  0.00  0.00    +0.000 C 
ENDBRANCH  18  20
ENDBRANCH  17  18
ENDBRANCH  14  17
ENDBRANCH  13  14
ENDBRANCH   1  13
TORSDOF 9
ENDMDL
MODEL 7
REMARK VINA RESULT:      -2.1      7.075     10.750
REMARK  Name = s3_orig_f12_ligand
REMARK  12 active torsions:
REMARK  status: ('A' for Active; 'I' for Inactive)
REMARK    1  A    between atoms: C_1  and  C_2
REMARK    2  A    between atoms: C_2  and  C_3
REMARK    3  A    between atoms: C_3  and  C_4
REMARK    4  A    between atoms: C_4  and  C_5
REMARK    5  A    between atoms: C_5  and  C_6
REMARK    6  A    between atoms: C_5  and  O_8
REMARK    7  A    between atoms: C_6  and  C_7
REMARK    8  A    between atoms: O_8  and  C_9
REMARK    9  A    between atoms: C_9  and  C_11
REMARK   10  A    between atoms: C_12  and  C_13
REMARK   11  A    between atoms: C_16  and  O_17
REMARK   12  A    between atoms: O_17  and  C_18
REMARK                            x       y       z     vdW  Elec       q    Type
REMARK                         _______ _______ _______ _____ _____    ______ ____
ROOT
ATOM      1  C   UNL     1      -4.510  -4.094 -12.862  0.00  0.00    +0.000 C 
ATOM      2  O   UNL     1      -5.124  -4.488 -13.820  0.00  0.00    +0.000 OA
ENDROOT
BRANCH   1   3
ATOM      3  C   UNL     1      -4.375  -4.845 -11.593  0.00  0.00    +0.000 C 
ATOM      4  C   UNL     1      -4.365  -4.234 -10.410  0.00  0.00    +0.000 C 
BRANCH   4   5
ATOM      5  C   UNL     1      -4.136  -4.921  -9.114  0.00  0.00    +0.000 A 
ATOM      6  C   UNL     1      -4.436  -6.268  -8.999  0.00  0.00    +0.000 A 
ATOM      7  C   UNL     1      -4.310  -6.918  -7.777  0.00  0.00    +0.000 A 
ATOM      8  C   UNL     1      -3.824  -6.252  -6.671  0.00  0.00    +0.000 A 
ATOM      9  C   UNL     1      -3.478  -4.933  -6.802  0.00  0.00    +0.000 A 
ATOM     10  C   UNL     1      -3.634  -4.268  -8.017  0.00  0.00    +0.000 A 
BRANCH   8  11
ATOM     11  O   UNL     1      -3.665  -6.861  -5.442  0.00  0.00    +0.000 OA
ATOM     12  C   UNL     1      -4.278  -6.250  -4.322  0.00  0.00    +0.000 C 
ENDBRANCH   8  11
ENDBRANCH   4   5
ENDBRANCH   1   3
BRANCH   1  13
ATOM     13  O   UNL     1      -3.982  -2.976 -12.922  0.00  0.00    +0.000 OA
BRANCH  13  14
ATOM     14  C   UNL     1      -3.608  -1.767 -13.297  0.00  0.00    +0.000 C 
BRANCH  14  15
ATOM     15  C   UNL     1      -4.688  -0.756 -12.961  0.00  0.00    +0.000 C 
ATOM     16  C   UNL     1      -4.881  -0.528 -11.466  0.00  0.00    +0.000 C 
ENDBRANCH  14  15
BRANCH  14  17
ATOM     17  C   UNL     1      -2.293  -1.360 -12.652  0.00  0.00    +0.000 C 
BRANCH  17  18
ATOM     18  C   UNL     1      -1.311  -2.470 -12.472  0.00  0.00    +0.000 C 
BRANCH  18  20
ATOM     19  C   UNL     1      -1.646  -1.722 -10.111  0.00  0.00    +0.000 C 
ATOM     20  C   UNL     1      -0.985  -2.731 -11.023  0.00  0.00    +0.000 C 
ENDBRANCH  18  20
ENDBRANCH  17  18
ENDBRANCH  14  17
ENDBRANCH  13  14
ENDBRANCH   1  13
TORSDOF 9
ENDMDL
MODEL 8
REMARK VINA RESULT:      -2.1      2.069      3.939
REMARK  Name = s3_orig_f12_ligand
REMARK  12 active torsions:
REMARK  status: ('A' for Active; 'I' for Inactive)
REMARK    1  A    between atoms: C_1  and  C_2
REMARK    2  A    between atoms: C_2  and  C_3
REMARK    3  A    between atoms: C_3  and  C_4
REMARK    4  A    between atoms: C_4  and  C_5
REMARK    5  A    between atoms: C_5  and  C_6
REMARK    6  A    between atoms: C_5  and  O_8
REMARK    7  A    between atoms: C_6  and  C_7
REMARK    8  A    between atoms: O_8  and  C_9
REMARK    9  A    between atoms: C_9  and  C_11
REMARK   10  A    between atoms: C_12  and  C_13
REMARK   11  A    between atoms: C_16  and  O_17
REMARK   12  A    between atoms: O_17  and  C_18
REMARK                            x       y       z     vdW  Elec       q    Type
REMARK                         _______ _______ _______ _____ _____    ______ ____
ROOT
ATOM      1  C   UNL     1      -8.075   0.828 -11.665  0.00  0.00    +0.000 C 
ATOM      2  O   UNL     1      -8.388   0.756 -10.504  0.00  0.00    +0.000 OA
ENDROOT
BRANCH   1   3
ATOM      3  C   UNL     1      -9.030   0.741 -12.793  0.00  0.00    +0.000 C 
ATOM      4  C   UNL     1      -8.638   0.432 -14.028  0.00  0.00    +0.000 C 
BRANCH   4   5
ATOM      5  C   UNL     1      -9.532   0.426 -15.213  0.00  0.00    +0.000 A 
ATOM      6  C   UNL     1      -9.019   0.786 -16.449  0.00  0.00    +0.000 A 
ATOM      7  C   UNL     1      -9.849   0.869 -17.561  0.00  0.00    +0.000 A 
ATOM      8  C   UNL     1     -11.185   0.534 -17.470  0.00  0.00    +0.000 A 
ATOM      9  C   UNL     1     -11.676   0.129 -16.258  0.00  0.00    +0.000 A 
ATOM     10  C   UNL     1     -10.855   0.075 -15.132  0.00  0.00    +0.000 A 
BRANCH   8  11
ATOM     11  O   UNL     1     -12.042   0.585 -18.550  0.00  0.00    +0.000 OA
ATOM     12  C   UNL     1     -12.313   1.855 -19.115  0.00  0.00    +0.000 C 
ENDBRANCH   8  11
ENDBRANCH   4   5
ENDBRANCH   1   3
BRANCH   1  13
ATOM     13  O   UNL     1      -6.874   0.947 -11.943  0.00  0.00    +0.000 OA
BRANCH  13  14
ATOM     14  C   UNL     1      -5.679   1.429 -12.226  0.00  0.00    +0.000 C 
BRANCH  14  15
ATOM     15  C   UNL     1      -4.980   0.537 -13.236  0.00  0.00    +0.000 C 
ATOM     16  C   UNL     1      -4.795  -0.902 -12.769  0.00  0.00    +0.000 C 
ENDBRANCH  14  15
BRANCH  14  17
ATOM     17  C   UNL     1      -5.758   2.852 -12.755  0.00  0.00    +0.000 C 
BRANCH  17  18
ATOM     18  C   UNL     1      -5.556   2.989 -14.228  0.00  0.00    +0.000 C 
BRANCH  18  20
ATOM     19  C   UNL     1      -7.799   4.066 -14.003  0.00  0.00    +0.000 C 
ATOM     20  C   UNL     1      -6.803   3.434 -14.949  0.00  0.00    +0.000 C 
ENDBRANCH  18  20
ENDBRANCH  17  18
ENDBRANCH  14  17
ENDBRANCH  13  14
ENDBRANCH   1  13
TORSDOF 9
ENDMDL
MODEL 9
REMARK VINA RESULT:      -2.1      2.256      4.029
REMARK  Name = s3_orig_f12_ligand
REMARK  12 active torsions:
REMARK  status: ('A' for Active; 'I' for Inactive)
REMARK    1  A    between atoms: C_1  and  C_2
REMARK    2  A    between atoms: C_2  and  C_3
REMARK    3  A    between atoms: C_3  and  C_4
REMARK    4  A    between atoms: C_4  and  C_5
REMARK    5  A    between atoms: C_5  and  C_6
REMARK    6  A    between atoms: C_5  and  O_8
REMARK    7  A    between atoms: C_6  and  C_7
REMARK    8  A    between atoms: O_8  and  C_9
REMARK    9  A    between atoms: C_9  and  C_11
REMARK   10  A    between atoms: C_12  and  C_13
REMARK   11  A    between atoms: C_16  and  O_17
REMARK   12  A    between atoms: O_17  and  C_18
REMARK                            x       y       z     vdW  Elec       q    Type
REMARK                         _______ _______ _______ _____ _____    ______ ____
ROOT
ATOM      1  C   UNL     1      -8.019   1.147 -10.957  0.00  0.00    +0.000 C 
ATOM      2  O   UNL     1      -8.682   1.220  -9.954  0.00  0.00    +0.000 OA
ENDROOT
BRANCH   1   3
ATOM      3  C   UNL     1      -8.551   0.749 -12.281  0.00  0.00    +0.000 C 
ATOM      4  C   UNL     1      -8.148   1.332 -13.408  0.00  0.00    +0.000 C 
BRANCH   4   5
ATOM      5  C   UNL     1      -8.715   1.045 -14.749  0.00  0.00    +0.000 A 
ATOM      6  C   UNL     1      -8.103   1.580 -15.872  0.00  0.00    +0.000 A 
ATOM      7  C   UNL     1      -8.658   1.396 -17.133  0.00  0.00    +0.000 A 
ATOM      8  C   UNL     1      -9.791   0.628 -17.300  0.00  0.00    +0.000 A 
ATOM      9  C   UNL     1     -10.363   0.059 -16.193  0.00  0.00    +0.000 A 
ATOM     10  C   UNL     1      -9.830   0.266 -14.922  0.00  0.00    +0.000 A 
BRANCH   8  11
ATOM     11  O   UNL     1     -10.367   0.405 -18.534  0.00  0.00    +0.000 OA
ATOM     12  C   UNL     1      -9.734   0.971 -19.666  0.00  0.00    +0.000 C 
ENDBRANCH   8  11
ENDBRANCH   4   5
ENDBRANCH   1   3
BRANCH   1  13
ATOM     13  O   UNL     1      -6.806   1.385 -10.878  0.00  0.00    +0.000 OA
BRANCH  13  14
ATOM     14  C   UNL     1      -5.491   1.304 -10.936  0.00  0.00    +0.000 C 
BRANCH  14  15
ATOM     15  C   UNL     1      -4.873   1.908  -9.689  0.00  0.00    +0.000 C 
ATOM     16  C   UNL     1      -3.439   1.461  -9.428  0.00  0.00    +0.000 C 
ENDBRANCH  14  15
BRANCH  14  17
ATOM     17  C   UNL     1      -5.023  -0.133 -11.107  0.00  0.00    +0.000 C 
BRANCH  17  18
ATOM     18  C   UNL     1      -4.898  -0.590 -12.522  0.00  0.00    +0.000 C 
BRANCH  18  20
ATOM     19  C   UNL     1      -3.006   0.520 -13.719  0.00  0.00    +0.000 C 
ATOM     20  C   UNL     1      -4.496   0.519 -13.460  0.00  0.00    +0.000 C 
ENDBRANCH  18  20
ENDBRANCH  17  18
ENDBRANCH  14  17
ENDBRANCH  13  14
ENDBRANCH   1  13
TORSDOF 9
ENDMDL
