MODEL 1
REMARK VINA RESULT:      -4.8      0.000      0.000
REMARK  Name = bgox31_3_ligand
REMARK  5 active torsions:
REMARK  status: ('A' for Active; 'I' for Inactive)
REMARK    1  A    between atoms: C_1  and  O_2
REMARK    2  A    between atoms: O_2  and  C_3
REMARK    3  A    between atoms: C_6  and  C_7
REMARK    4  A    between atoms: C_7  and  C_9
REMARK    5  A    between atoms: C_15  and  O_16
REMARK                            x       y       z     vdW  Elec       q    Type
REMARK                         _______ _______ _______ _____ _____    ______ ____
ROOT
ATOM      1  C   UNL     1      -4.312  -5.232   3.187  0.00  0.00    +0.000 A 
ATOM      2  C   UNL     1      -3.374  -6.202   2.956  0.00  0.00    +0.000 A 
ATOM      3  C   UNL     1      -2.395  -6.471   3.906  0.00  0.00    +0.000 A 
ATOM      4  C   UNL     1      -2.362  -5.823   5.111  0.00  0.00    +0.000 A 
ATOM      5  C   UNL     1      -3.346  -4.844   5.344  0.00  0.00    +0.000 A 
ATOM      6  C   UNL     1      -4.283  -4.541   4.420  0.00  0.00    +0.000 A 
ENDROOT
BRANCH   1   8
ATOM      7  C   UNL     1      -5.139  -3.900   1.336  0.00  0.00    +0.000 C 
ATOM      8  O   UNL     1      -5.295  -4.978   2.214  0.00  0.00    +0.000 OA
ENDBRANCH   1   8
BRANCH   4   9
ATOM      9  C   UNL     1      -1.295  -6.087   6.132  0.00  0.00    +0.000 C 
ATOM     10  O   UNL     1      -1.601  -6.181   7.312  0.00  0.00    +0.000 OA
BRANCH   9  11
ATOM     11  C   UNL     1       0.158  -6.227   5.764  0.00  0.00    +0.000 A 
ATOM     12  C   UNL     1       0.733  -7.471   5.755  0.00  0.00    +0.000 A 
ATOM     13  C   UNL     1       2.065  -7.574   5.445  0.00  0.00    +0.000 A 
ATOM     14  C   UNL     1       2.748  -6.476   5.033  0.00  0.00    +0.000 A 
ATOM     15  C   UNL     1       2.154  -5.195   4.957  0.00  0.00    +0.000 A 
ATOM     16  C   UNL     1       0.837  -5.108   5.372  0.00  0.00    +0.000 A 
ENDBRANCH   9  11
ENDBRANCH   4   9
BRANCH   5  17
ATOM     17  O   UNL     1      -3.229  -4.157   6.550  0.00  0.00    +0.000 OA
ATOM     18  H   UNL     1      -3.820  -3.385   6.739  0.00  0.00    +0.000 HD
ENDBRANCH   5  17
TORSDOF 4
ENDMDL
MODEL 2
REMARK VINA RESULT:      -4.7     13.307     14.494
REMARK  Name = bgox31_3_ligand
REMARK  5 active torsions:
REMARK  status: ('A' for Active; 'I' for Inactive)
REMARK    1  A    between atoms: C_1  and  O_2
REMARK    2  A    between atoms: O_2  and  C_3
REMARK    3  A    between atoms: C_6  and  C_7
REMARK    4  A    between atoms: C_7  and  C_9
REMARK    5  A    between atoms: C_15  and  O_16
REMARK                            x       y       z     vdW  Elec       q    Type
REMARK                         _______ _______ _______ _____ _____    ______ ____
ROOT
ATOM      1  C   UNL     1       8.809   3.244   7.970  0.00  0.00    +0.000 A 
ATOM      2  C   UNL     1       9.767   3.197   8.948  0.00  0.00    +0.000 A 
ATOM      3  C   UNL     1       9.403   3.019  10.279  0.00  0.00    +0.000 A 
ATOM      4  C   UNL     1       8.099   2.837  10.651  0.00  0.00    +0.000 A 
ATOM      5  C   UNL     1       7.128   2.867   9.634  0.00  0.00    +0.000 A 
ATOM      6  C   UNL     1       7.455   3.075   8.340  0.00  0.00    +0.000 A 
ENDROOT
BRANCH   1   8
ATOM      7  C   UNL     1       9.863   2.386   5.960  0.00  0.00    +0.000 C 
ATOM      8  O   UNL     1       9.201   3.421   6.631  0.00  0.00    +0.000 OA
ENDBRANCH   1   8
BRANCH   4   9
ATOM      9  C   UNL     1       7.694   2.672  12.086  0.00  0.00    +0.000 C 
ATOM     10  O   UNL     1       6.995   3.524  12.616  0.00  0.00    +0.000 OA
BRANCH   9  11
ATOM     11  C   UNL     1       8.128   1.495  12.918  0.00  0.00    +0.000 A 
ATOM     12  C   UNL     1       8.172   0.249  12.349  0.00  0.00    +0.000 A 
ATOM     13  C   UNL     1       8.543  -0.815  13.132  0.00  0.00    +0.000 A 
ATOM     14  C   UNL     1       8.978  -0.599  14.400  0.00  0.00    +0.000 A 
ATOM     15  C   UNL     1       9.018   0.689  14.982  0.00  0.00    +0.000 A 
ATOM     16  C   UNL     1       8.542   1.726  14.199  0.00  0.00    +0.000 A 
ENDBRANCH   9  11
ENDBRANCH   4   9
BRANCH   5  17
ATOM     17  O   UNL     1       5.809   2.755  10.066  0.00  0.00    +0.000 OA
ATOM     18  H   UNL     1       5.551   2.026  10.686  0.00  0.00    +0.000 HD
ENDBRANCH   5  17
TORSDOF 4
ENDMDL
MODEL 3
REMARK VINA RESULT:      -4.7     13.670     14.970
REMARK  Name = bgox31_3_ligand
REMARK  5 active torsions:
REMARK  status: ('A' for Active; 'I' for Inactive)
REMARK    1  A    between atoms: C_1  and  O_2
REMARK    2  A    between atoms: O_2  and  C_3
REMARK    3  A    between atoms: C_6  and  C_7
REMARK    4  A    between atoms: C_7  and  C_9
REMARK    5  A    between atoms: C_15  and  O_16
REMARK                            x       y       z     vdW  Elec       q    Type
REMARK                         _______ _______ _______ _____ _____    ______ ____
ROOT
ATOM      1  C   UNL     1       8.234   2.353  11.496  0.00  0.00    +0.000 A 
ATOM      2  C   UNL     1       9.575   2.582  11.333  0.00  0.00    +0.000 A 
ATOM      3  C   UNL     1      10.071   2.995  10.101  0.00  0.00    +0.000 A 
ATOM      4  C   UNL     1       9.246   3.235   9.036  0.00  0.00    +0.000 A 
ATOM      5  C   UNL     1       7.869   3.017   9.224  0.00  0.00    +0.000 A 
ATOM      6  C   UNL     1       7.370   2.580  10.401  0.00  0.00    +0.000 A 
ENDROOT
BRANCH   1   8
ATOM      7  C   UNL     1       7.967   0.621  13.174  0.00  0.00    +0.000 C 
ATOM      8  O   UNL     1       7.754   1.938  12.752  0.00  0.00    +0.000 OA
ENDBRANCH   1   8
BRANCH   4   9
ATOM      9  C   UNL     1       9.773   3.656   7.696  0.00  0.00    +0.000 C 
ATOM     10  O   UNL     1       9.599   4.805   7.314  0.00  0.00    +0.000 OA
BRANCH   9  11
ATOM     11  C   UNL     1      10.503   2.708   6.781  0.00  0.00    +0.000 A 
ATOM     12  C   UNL     1      11.799   2.366   7.063  0.00  0.00    +0.000 A 
ATOM     13  C   UNL     1      12.455   1.524   6.200  0.00  0.00    +0.000 A 
ATOM     14  C   UNL     1      11.779   0.952   5.173  0.00  0.00    +0.000 A 
ATOM     15  C   UNL     1      10.418   1.228   4.910  0.00  0.00    +0.000 A 
ATOM     16  C   UNL     1       9.813   2.158   5.738  0.00  0.00    +0.000 A 
ENDBRANCH   9  11
ENDBRANCH   4   9
BRANCH   5  17
ATOM     17  O   UNL     1       7.077   3.199   8.093  0.00  0.00    +0.000 OA
ATOM     18  H   UNL     1       6.530   2.449   7.746  0.00  0.00    +0.000 HD
ENDBRANCH   5  17
TORSDOF 4
ENDMDL
MODEL 4
REMARK VINA RESULT:      -4.7      2.423      4.186
REMARK  Name = bgox31_3_ligand
REMARK  5 active torsions:
REMARK  status: ('A' for Active; 'I' for Inactive)
REMARK    1  A    between atoms: C_1  and  O_2
REMARK    2  A    between atoms: O_2  and  C_3
REMARK    3  A    between atoms: C_6  and  C_7
REMARK    4  A    between atoms: C_7  and  C_9
REMARK    5  A    between atoms: C_15  and  O_16
REMARK                            x       y       z     vdW  Elec       q    Type
REMARK                         _______ _______ _______ _____ _____    ______ ____
ROOT
ATOM      1  C   UNL     1      -4.345  -5.078  -0.161  0.00  0.00    +0.000 A 
ATOM      2  C   UNL     1      -4.645  -4.079   0.727  0.00  0.00    +0.000 A 
ATOM      3  C   UNL     1      -4.672  -4.340   2.093  0.00  0.00    +0.000 A 
ATOM      4  C   UNL     1      -4.355  -5.572   2.597  0.00  0.00    +0.000 A 
ATOM      5  C   UNL     1      -4.028  -6.583   1.675  0.00  0.00    +0.000 A 
ATOM      6  C   UNL     1      -4.032  -6.362   0.342  0.00  0.00    +0.000 A 
ENDROOT
BRANCH   1   8
ATOM      7  C   UNL     1      -4.414  -5.835  -2.465  0.00  0.00    +0.000 C 
ATOM      8  O   UNL     1      -4.320  -4.791  -1.538  0.00  0.00    +0.000 OA
ENDBRANCH   1   8
BRANCH   4   9
ATOM      9  C   UNL     1      -4.407  -5.871   4.067  0.00  0.00    +0.000 C 
ATOM     10  O   UNL     1      -5.397  -6.416   4.535  0.00  0.00    +0.000 OA
BRANCH   9  11
ATOM     11  C   UNL     1      -3.286  -5.509   5.005  0.00  0.00    +0.000 A 
ATOM     12  C   UNL     1      -3.572  -4.843   6.168  0.00  0.00    +0.000 A 
ATOM     13  C   UNL     1      -2.533  -4.498   6.995  0.00  0.00    +0.000 A 
ATOM     14  C   UNL     1      -1.277  -4.928   6.716  0.00  0.00    +0.000 A 
ATOM     15  C   UNL     1      -0.971  -5.685   5.561  0.00  0.00    +0.000 A 
ATOM     16  C   UNL     1      -2.024  -5.931   4.697  0.00  0.00    +0.000 A 
ENDBRANCH   9  11
ENDBRANCH   4   9
BRANCH   5  17
ATOM     17  O   UNL     1      -3.789  -7.839   2.227  0.00  0.00    +0.000 OA
ATOM     18  H   UNL     1      -4.334  -8.616   1.944  0.00  0.00    +0.000 HD
ENDBRANCH   5  17
TORSDOF 4
ENDMDL
MODEL 5
REMARK VINA RESULT:      -4.6      2.304      6.309
REMARK  Name = bgox31_3_ligand
REMARK  5 active torsions:
REMARK  status: ('A' for Active; 'I' for Inactive)
REMARK    1  A    between atoms: C_1  and  O_2
REMARK    2  A    between atoms: O_2  and  C_3
REMARK    3  A    between atoms: C_6  and  C_7
REMARK    4  A    between atoms: C_7  and  C_9
REMARK    5  A    between atoms: C_15  and  O_16
REMARK                            x       y       z     vdW  Elec       q    Type
REMARK                         _______ _______ _______ _____ _____    ______ ____
ROOT
ATOM      1  C   UNL     1       2.825  -7.448   5.874  0.00  0.00    +0.000 A 
ATOM      2  C   UNL     1       2.609  -6.178   5.409  0.00  0.00    +0.000 A 
ATOM      3  C   UNL     1       1.350  -5.803   4.952  0.00  0.00    +0.000 A 
ATOM      4  C   UNL     1       0.283  -6.660   4.996  0.00  0.00    +0.000 A 
ATOM      5  C   UNL     1       0.515  -7.954   5.496  0.00  0.00    +0.000 A 
ATOM      6  C   UNL     1       1.738  -8.351   5.910  0.00  0.00    +0.000 A 
ENDROOT
BRANCH   1   8
ATOM      7  C   UNL     1       4.271  -8.248   7.650  0.00  0.00    +0.000 C 
ATOM      8  O   UNL     1       4.106  -7.803   6.334  0.00  0.00    +0.000 OA
ENDBRANCH   1   8
BRANCH   4   9
ATOM      9  C   UNL     1      -1.073  -6.275   4.482  0.00  0.00    +0.000 C 
ATOM     10  O   UNL     1      -1.408  -6.615   3.356  0.00  0.00    +0.000 OA
BRANCH   9  11
ATOM     11  C   UNL     1      -2.045  -5.463   5.295  0.00  0.00    +0.000 A 
ATOM     12  C   UNL     1      -1.730  -5.135   6.588  0.00  0.00    +0.000 A 
ATOM     13  C   UNL     1      -2.643  -4.419   7.322  0.00  0.00    +0.000 A 
ATOM     14  C   UNL     1      -3.765  -3.945   6.724  0.00  0.00    +0.000 A 
ATOM     15  C   UNL     1      -4.072  -4.204   5.368  0.00  0.00    +0.000 A 
ATOM     16  C   UNL     1      -3.181  -5.012   4.685  0.00  0.00    +0.000 A 
ENDBRANCH   9  11
ENDBRANCH   4   9
BRANCH   5  17
ATOM     17  O   UNL     1      -0.579  -8.815   5.451  0.00  0.00    +0.000 OA
ATOM     18  H   UNL     1      -1.104  -8.992   6.273  0.00  0.00    +0.000 HD
ENDBRANCH   5  17
TORSDOF 4
ENDMDL
MODEL 6
REMARK VINA RESULT:      -4.5     13.118     15.453
REMARK  Name = bgox31_3_ligand
REMARK  5 active torsions:
REMARK  status: ('A' for Active; 'I' for Inactive)
REMARK    1  A    between atoms: C_1  and  O_2
REMARK    2  A    between atoms: O_2  and  C_3
REMARK    3  A    between atoms: C_6  and  C_7
REMARK    4  A    between atoms: C_7  and  C_9
REMARK    5  A    between atoms: C_15  and  O_16
REMARK                            x       y       z     vdW  Elec       q    Type
REMARK                         _______ _______ _______ _____ _____    ______ ____
ROOT
ATOM      1  C   UNL     1      10.343   2.575  10.975  0.00  0.00    +0.000 A 
ATOM      2  C   UNL     1       9.192   2.243  11.639  0.00  0.00    +0.000 A 
ATOM      3  C   UNL     1       7.952   2.496  11.061  0.00  0.00    +0.000 A 
ATOM      4  C   UNL     1       7.837   3.031   9.806  0.00  0.00    +0.000 A 
ATOM      5  C   UNL     1       9.029   3.347   9.128  0.00  0.00    +0.000 A 
ATOM      6  C   UNL     1      10.243   3.144   9.686  0.00  0.00    +0.000 A 
ENDROOT
BRANCH   1   8
ATOM      7  C   UNL     1      12.699   3.086  11.245  0.00  0.00    +0.000 C 
ATOM      8  O   UNL     1      11.586   2.307  11.577  0.00  0.00    +0.000 OA
ENDBRANCH   1   8
BRANCH   4   9
ATOM      9  C   UNL     1       6.505   3.333   9.185  0.00  0.00    +0.000 C 
ATOM     10  O   UNL     1       6.181   2.764   8.152  0.00  0.00    +0.000 OA
BRANCH   9  11
ATOM     11  C   UNL     1       5.546   4.330   9.777  0.00  0.00    +0.000 A 
ATOM     12  C   UNL     1       4.722   3.944  10.802  0.00  0.00    +0.000 A 
ATOM     13  C   UNL     1       3.834   4.861  11.307  0.00  0.00    +0.000 A 
ATOM     14  C   UNL     1       3.877   6.148  10.879  0.00  0.00    +0.000 A 
ATOM     15  C   UNL     1       4.773   6.587   9.878  0.00  0.00    +0.000 A 
ATOM     16  C   UNL     1       5.586   5.617   9.318  0.00  0.00    +0.000 A 
ENDBRANCH   9  11
ENDBRANCH   4   9
BRANCH   5  17
ATOM     17  O   UNL     1       8.864   3.960   7.888  0.00  0.00    +0.000 OA
ATOM     18  H   UNL     1       8.986   4.939   7.800  0.00  0.00    +0.000 HD
ENDBRANCH   5  17
TORSDOF 4
ENDMDL
MODEL 7
REMARK VINA RESULT:      -4.5     13.160     14.409
REMARK  Name = bgox31_3_ligand
REMARK  5 active torsions:
REMARK  status: ('A' for Active; 'I' for Inactive)
REMARK    1  A    between atoms: C_1  and  O_2
REMARK    2  A    between atoms: O_2  and  C_3
REMARK    3  A    between atoms: C_6  and  C_7
REMARK    4  A    between atoms: C_7  and  C_9
REMARK    5  A    between atoms: C_15  and  O_16
REMARK                            x       y       z     vdW  Elec       q    Type
REMARK                         _______ _______ _______ _____ _____    ______ ____
ROOT
ATOM      1  C   UNL     1       4.756   5.083  11.687  0.00  0.00    +0.000 A 
ATOM      2  C   UNL     1       5.887   5.240  12.444  0.00  0.00    +0.000 A 
ATOM      3  C   UNL     1       6.998   4.434  12.220  0.00  0.00    +0.000 A 
ATOM      4  C   UNL     1       7.023   3.503  11.218  0.00  0.00    +0.000 A 
ATOM      5  C   UNL     1       5.863   3.367  10.434  0.00  0.00    +0.000 A 
ATOM      6  C   UNL     1       4.759   4.114  10.658  0.00  0.00    +0.000 A 
ENDROOT
BRANCH   1   8
ATOM      7  C   UNL     1       2.355   5.372  11.878  0.00  0.00    +0.000 C 
ATOM      8  O   UNL     1       3.645   5.911  11.929  0.00  0.00    +0.000 OA
ENDBRANCH   1   8
BRANCH   4   9
ATOM      9  C   UNL     1       8.207   2.611  10.985  0.00  0.00    +0.000 C 
ATOM     10  O   UNL     1       8.778   2.638   9.904  0.00  0.00    +0.000 OA
BRANCH   9  11
ATOM     11  C   UNL     1       8.718   1.658  12.033  0.00  0.00    +0.000 A 
ATOM     12  C   UNL     1       9.813   2.006  12.781  0.00  0.00    +0.000 A 
ATOM     13  C   UNL     1      10.281   1.112  13.710  0.00  0.00    +0.000 A 
ATOM     14  C   UNL     1       9.586  -0.028  13.958  0.00  0.00    +0.000 A 
ATOM     15  C   UNL     1       8.409  -0.370  13.254  0.00  0.00    +0.000 A 
ATOM     16  C   UNL     1       8.020   0.505  12.255  0.00  0.00    +0.000 A 
ENDBRANCH   9  11
ENDBRANCH   4   9
BRANCH   5  17
ATOM     17  O   UNL     1       5.904   2.356   9.477  0.00  0.00    +0.000 OA
ATOM     18  H   UNL     1       6.088   2.579   8.530  0.00  0.00    +0.000 HD
ENDBRANCH   5  17
TORSDOF 4
ENDMDL
MODEL 8
REMARK VINA RESULT:      -4.4      1.794      6.049
REMARK  Name = bgox31_3_ligand
REMARK  5 active torsions:
REMARK  status: ('A' for Active; 'I' for Inactive)
REMARK    1  A    between atoms: C_1  and  O_2
REMARK    2  A    between atoms: O_2  and  C_3
REMARK    3  A    between atoms: C_6  and  C_7
REMARK    4  A    between atoms: C_7  and  C_9
REMARK    5  A    between atoms: C_15  and  O_16
REMARK                            x       y       z     vdW  Elec       q    Type
REMARK                         _______ _______ _______ _____ _____    ______ ____
ROOT
ATOM      1  C   UNL     1       2.707  -6.824   5.020  0.00  0.00    +0.000 A 
ATOM      2  C   UNL     1       2.337  -5.515   4.860  0.00  0.00    +0.000 A 
ATOM      3  C   UNL     1       1.054  -5.103   5.201  0.00  0.00    +0.000 A 
ATOM      4  C   UNL     1       0.142  -5.964   5.749  0.00  0.00    +0.000 A 
ATOM      5  C   UNL     1       0.543  -7.300   5.928  0.00  0.00    +0.000 A 
ATOM      6  C   UNL     1       1.772  -7.731   5.569  0.00  0.00    +0.000 A 
ENDROOT
BRANCH   1   8
ATOM      7  C   UNL     1       4.595  -8.322   5.305  0.00  0.00    +0.000 C 
ATOM      8  O   UNL     1       4.012  -7.219   4.671  0.00  0.00    +0.000 OA
ENDBRANCH   1   8
BRANCH   4   9
ATOM      9  C   UNL     1      -1.253  -5.535   6.096  0.00  0.00    +0.000 C 
ATOM     10  O   UNL     1      -1.515  -5.213   7.247  0.00  0.00    +0.000 OA
BRANCH   9  11
ATOM     11  C   UNL     1      -2.364  -5.500   5.080  0.00  0.00    +0.000 A 
ATOM     12  C   UNL     1      -3.425  -4.655   5.274  0.00  0.00    +0.000 A 
ATOM     13  C   UNL     1      -4.441  -4.659   4.351  0.00  0.00    +0.000 A 
ATOM     14  C   UNL     1      -4.317  -5.392   3.216  0.00  0.00    +0.000 A 
ATOM     15  C   UNL     1      -3.193  -6.210   2.957  0.00  0.00    +0.000 A 
ATOM     16  C   UNL     1      -2.234  -6.260   3.953  0.00  0.00    +0.000 A 
ENDBRANCH   9  11
ENDBRANCH   4   9
BRANCH   5  17
ATOM     17  O   UNL     1      -0.441  -8.157   6.416  0.00  0.00    +0.000 OA
ATOM     18  H   UNL     1      -0.225  -8.797   7.141  0.00  0.00    +0.000 HD
ENDBRANCH   5  17
TORSDOF 4
ENDMDL
MODEL 9
REMARK VINA RESULT:      -4.4      2.652      5.715
REMARK  Name = bgox31_3_ligand
REMARK  5 active torsions:
REMARK  status: ('A' for Active; 'I' for Inactive)
REMARK    1  A    between atoms: C_1  and  O_2
REMARK    2  A    between atoms: O_2  and  C_3
REMARK    3  A    between atoms: C_6  and  C_7
REMARK    4  A    between atoms: C_7  and  C_9
REMARK    5  A    between atoms: C_15  and  O_16
REMARK                            x       y       z     vdW  Elec       q    Type
REMARK                         _______ _______ _______ _____ _____    ______ ____
ROOT
ATOM      1  C   UNL     1       0.609  -6.296   4.806  0.00  0.00    +0.000 A 
ATOM      2  C   UNL     1       0.458  -5.434   5.859  0.00  0.00    +0.000 A 
ATOM      3  C   UNL     1      -0.801  -4.946   6.192  0.00  0.00    +0.000 A 
ATOM      4  C   UNL     1      -1.927  -5.342   5.523  0.00  0.00    +0.000 A 
ATOM      5  C   UNL     1      -1.760  -6.244   4.456  0.00  0.00    +0.000 A 
ATOM      6  C   UNL     1      -0.542  -6.702   4.092  0.00  0.00    +0.000 A 
ENDROOT
BRANCH   1   8
ATOM      7  C   UNL     1       2.983  -5.904   4.500  0.00  0.00    +0.000 C 
ATOM      8  O   UNL     1       1.892  -6.779   4.489  0.00  0.00    +0.000 OA
ENDBRANCH   1   8
BRANCH   4   9
ATOM      9  C   UNL     1      -3.286  -4.802   5.856  0.00  0.00    +0.000 C 
ATOM     10  O   UNL     1      -3.927  -4.213   4.997  0.00  0.00    +0.000 OA
BRANCH   9  11
ATOM     11  C   UNL     1      -3.897  -4.940   7.225  0.00  0.00    +0.000 A 
ATOM     12  C   UNL     1      -3.425  -5.903   8.077  0.00  0.00    +0.000 A 
ATOM     13  C   UNL     1      -4.015  -6.032   9.310  0.00  0.00    +0.000 A 
ATOM     14  C   UNL     1      -4.952  -5.133   9.706  0.00  0.00    +0.000 A 
ATOM     15  C   UNL     1      -5.397  -4.081   8.872  0.00  0.00    +0.000 A 
ATOM     16  C   UNL     1      -4.855  -4.040   7.600  0.00  0.00    +0.000 A 
ENDBRANCH   9  11
ENDBRANCH   4   9
BRANCH   5  17
ATOM     17  O   UNL     1      -2.921  -6.560   3.755  0.00  0.00    +0.000 OA
ATOM     18  H   UNL     1      -2.876  -6.753   2.784  0.00  0.00    +0.000 HD
ENDBRANCH   5  17
TORSDOF 4
ENDMDL
