REMARK  Name = s3_esm2_f4_ligand
REMARK  12 active torsions:
REMARK  status: ('A' for Active; 'I' for Inactive)
REMARK    1  A    between atoms: C_1  and  C_2
REMARK    2  A    between atoms: C_2  and  C_3
REMARK    3  A    between atoms: C_3  and  C_4
REMARK    4  A    between atoms: C_4  and  C_5
REMARK    5  A    between atoms: C_5  and  C_6
REMARK    6  A    between atoms: C_5  and  O_8
REMARK    7  A    between atoms: C_6  and  C_7
REMARK    8  A    between atoms: O_8  and  C_9
REMARK    9  A    between atoms: C_9  and  C_11
REMARK   10  A    between atoms: C_12  and  C_13
REMARK   11  A    between atoms: C_16  and  O_17
REMARK   12  A    between atoms: O_17  and  C_18
REMARK                            x       y       z     vdW  Elec       q    Type
REMARK                         _______ _______ _______ _____ _____    ______ ____
ROOT
ATOM      1  C   UNL     1      -1.228  -0.225   6.134  0.00  0.00    +0.000 C 
ATOM      2  O   UNL     1      -0.513   0.479   5.474  0.00  0.00    +0.000 OA
ENDROOT
BRANCH   1   3
ATOM      3  C   UNL     1      -0.833  -1.552   6.597  0.00  0.00    +0.000 C 
ATOM      4  C   UNL     1      -1.527  -2.181   7.538  0.00  0.00    +0.000 C 
BRANCH   4   5
ATOM      5  C   UNL     1      -1.307  -3.598   7.901  0.00  0.00    +0.000 A 
ATOM      6  C   UNL     1      -0.542  -4.430   7.109  0.00  0.00    +0.000 A 
ATOM      7  C   UNL     1      -0.382  -5.759   7.456  0.00  0.00    +0.000 A 
ATOM      8  C   UNL     1      -0.974  -6.266   8.574  0.00  0.00    +0.000 A 
ATOM      9  C   UNL     1      -1.733  -5.434   9.371  0.00  0.00    +0.000 A 
ATOM     10  C   UNL     1      -1.893  -4.107   9.029  0.00  0.00    +0.000 A 
BRANCH   8  11
ATOM     11  O   UNL     1      -0.803  -7.572   8.874  0.00  0.00    +0.000 OA
ATOM     12  C   UNL     1      -1.661  -8.199   9.813  0.00  0.00    +0.000 C 
ENDBRANCH   8  11
ENDBRANCH   4   5
ENDBRANCH   1   3
BRANCH   1  13
ATOM     13  O   UNL     1      -2.485   0.154   6.482  0.00  0.00    +0.000 OA
BRANCH  13  14
ATOM     14  C   UNL     1      -3.081   1.255   5.821  0.00  0.00    +0.000 C 
BRANCH  14  15
ATOM     15  C   UNL     1      -4.474   0.894   5.362  0.00  0.00    +0.000 C 
ATOM     16  C   UNL     1      -4.735  -0.580   5.267  0.00  0.00    +0.000 C 
ENDBRANCH  14  15
BRANCH  14  17
ATOM     17  C   UNL     1      -3.152   2.436   6.779  0.00  0.00    +0.000 C 
BRANCH  17  18
ATOM     18  C   UNL     1      -2.039   3.415   6.531  0.00  0.00    +0.000 C 
BRANCH  18  20
ATOM     19  C   UNL     1      -1.171   5.718   6.963  0.00  0.00    +0.000 C 
ATOM     20  C   UNL     1      -2.277   4.705   7.275  0.00  0.00    +0.000 C 
ENDBRANCH  18  20
ENDBRANCH  17  18
ENDBRANCH  14  17
ENDBRANCH  13  14
ENDBRANCH   1  13
TORSDOF 9
