MODEL 1
REMARK VINA RESULT:      -6.0      0.000      0.000
REMARK  Name = s3_esm2_f4_ligand
REMARK  12 active torsions:
REMARK  status: ('A' for Active; 'I' for Inactive)
REMARK    1  A    between atoms: C_1  and  C_2
REMARK    2  A    between atoms: C_2  and  C_3
REMARK    3  A    between atoms: C_3  and  C_4
REMARK    4  A    between atoms: C_4  and  C_5
REMARK    5  A    between atoms: C_5  and  C_6
REMARK    6  A    between atoms: C_5  and  O_8
REMARK    7  A    between atoms: C_6  and  C_7
REMARK    8  A    between atoms: O_8  and  C_9
REMARK    9  A    between atoms: C_9  and  C_11
REMARK   10  A    between atoms: C_12  and  C_13
REMARK   11  A    between atoms: C_16  and  O_17
REMARK   12  A    between atoms: O_17  and  C_18
REMARK                            x       y       z     vdW  Elec       q    Type
REMARK                         _______ _______ _______ _____ _____    ______ ____
ROOT
ATOM      1  C   UNL     1      -0.009  -6.343   7.724  0.00  0.00    +0.000 C 
ATOM      2  O   UNL     1       0.567  -6.983   6.887  0.00  0.00    +0.000 OA
ENDROOT
BRANCH   1   3
ATOM      3  C   UNL     1      -0.229  -4.904   7.616  0.00  0.00    +0.000 C 
ATOM      4  C   UNL     1      -0.841  -4.384   6.558  0.00  0.00    +0.000 C 
BRANCH   4   5
ATOM      5  C   UNL     1      -1.277  -2.973   6.482  0.00  0.00    +0.000 A 
ATOM      6  C   UNL     1      -2.615  -2.638   6.445  0.00  0.00    +0.000 A 
ATOM      7  C   UNL     1      -2.993  -1.312   6.339  0.00  0.00    +0.000 A 
ATOM      8  C   UNL     1      -2.059  -0.323   6.268  0.00  0.00    +0.000 A 
ATOM      9  C   UNL     1      -0.720  -0.655   6.312  0.00  0.00    +0.000 A 
ATOM     10  C   UNL     1      -0.340  -1.977   6.420  0.00  0.00    +0.000 A 
BRANCH   8  11
ATOM     11  O   UNL     1      -2.466   0.960   6.155  0.00  0.00    +0.000 OA
ATOM     12  C   UNL     1      -3.090   1.603   7.255  0.00  0.00    +0.000 C 
ENDBRANCH   8  11
ENDBRANCH   4   5
ENDBRANCH   1   3
BRANCH   1  13
ATOM     13  O   UNL     1      -0.483  -6.912   8.862  0.00  0.00    +0.000 OA
BRANCH  13  14
ATOM     14  C   UNL     1      -1.796  -6.603   9.293  0.00  0.00    +0.000 C 
BRANCH  14  15
ATOM     15  C   UNL     1      -2.669  -7.834   9.225  0.00  0.00    +0.000 C 
ATOM     16  C   UNL     1      -1.946  -9.124   9.478  0.00  0.00    +0.000 C 
ENDBRANCH  14  15
BRANCH  14  17
ATOM     17  C   UNL     1      -1.746  -6.095  10.727  0.00  0.00    +0.000 C 
BRANCH  17  18
ATOM     18  C   UNL     1      -2.752  -5.002  10.960  0.00  0.00    +0.000 C 
BRANCH  18  20
ATOM     19  C   UNL     1      -3.176  -2.557  10.669  0.00  0.00    +0.000 C 
ATOM     20  C   UNL     1      -2.426  -3.782  10.136  0.00  0.00    +0.000 C 
ENDBRANCH  18  20
ENDBRANCH  17  18
ENDBRANCH  14  17
ENDBRANCH  13  14
ENDBRANCH   1  13
TORSDOF 9
ENDMDL
MODEL 2
REMARK VINA RESULT:      -5.7      1.439      2.390
REMARK  Name = s3_esm2_f4_ligand
REMARK  12 active torsions:
REMARK  status: ('A' for Active; 'I' for Inactive)
REMARK    1  A    between atoms: C_1  and  C_2
REMARK    2  A    between atoms: C_2  and  C_3
REMARK    3  A    between atoms: C_3  and  C_4
REMARK    4  A    between atoms: C_4  and  C_5
REMARK    5  A    between atoms: C_5  and  C_6
REMARK    6  A    between atoms: C_5  and  O_8
REMARK    7  A    between atoms: C_6  and  C_7
REMARK    8  A    between atoms: O_8  and  C_9
REMARK    9  A    between atoms: C_9  and  C_11
REMARK   10  A    between atoms: C_12  and  C_13
REMARK   11  A    between atoms: C_16  and  O_17
REMARK   12  A    between atoms: O_17  and  C_18
REMARK                            x       y       z     vdW  Elec       q    Type
REMARK                         _______ _______ _______ _____ _____    ______ ____
ROOT
ATOM      1  C   UNL     1       0.254  -6.763   7.166  0.00  0.00    +0.000 C 
ATOM      2  O   UNL     1       0.640  -7.394   6.220  0.00  0.00    +0.000 OA
ENDROOT
BRANCH   1   3
ATOM      3  C   UNL     1      -0.504  -5.521   7.039  0.00  0.00    +0.000 C 
ATOM      4  C   UNL     1      -0.268  -4.493   7.845  0.00  0.00    +0.000 C 
BRANCH   4   5
ATOM      5  C   UNL     1      -0.848  -3.148   7.639  0.00  0.00    +0.000 A 
ATOM      6  C   UNL     1      -0.490  -2.372   6.556  0.00  0.00    +0.000 A 
ATOM      7  C   UNL     1      -1.023  -1.105   6.408  0.00  0.00    +0.000 A 
ATOM      8  C   UNL     1      -1.900  -0.604   7.322  0.00  0.00    +0.000 A 
ATOM      9  C   UNL     1      -2.265  -1.381   8.402  0.00  0.00    +0.000 A 
ATOM     10  C   UNL     1      -1.737  -2.647   8.552  0.00  0.00    +0.000 A 
BRANCH   8  11
ATOM     11  O   UNL     1      -2.391   0.643   7.149  0.00  0.00    +0.000 OA
ATOM     12  C   UNL     1      -1.552   1.668   6.644  0.00  0.00    +0.000 C 
ENDBRANCH   8  11
ENDBRANCH   4   5
ENDBRANCH   1   3
BRANCH   1  13
ATOM     13  O   UNL     1       0.518  -7.147   8.441  0.00  0.00    +0.000 OA
BRANCH  13  14
ATOM     14  C   UNL     1      -0.390  -8.006   9.105  0.00  0.00    +0.000 C 
BRANCH  14  15
ATOM     15  C   UNL     1       0.308  -9.280   9.521  0.00  0.00    +0.000 C 
ATOM     16  C   UNL     1      -0.070  -9.780  10.884  0.00  0.00    +0.000 C 
ENDBRANCH  14  15
BRANCH  14  17
ATOM     17  C   UNL     1      -0.937  -7.301  10.338  0.00  0.00    +0.000 C 
BRANCH  17  18
ATOM     18  C   UNL     1      -2.313  -6.748  10.092  0.00  0.00    +0.000 C 
BRANCH  18  20
ATOM     19  C   UNL     1      -4.141  -8.445  10.231  0.00  0.00    +0.000 C 
ATOM     20  C   UNL     1      -3.156  -7.722   9.308  0.00  0.00    +0.000 C 
ENDBRANCH  18  20
ENDBRANCH  17  18
ENDBRANCH  14  17
ENDBRANCH  13  14
ENDBRANCH   1  13
TORSDOF 9
ENDMDL
MODEL 3
REMARK VINA RESULT:      -5.7      1.239      1.990
REMARK  Name = s3_esm2_f4_ligand
REMARK  12 active torsions:
REMARK  status: ('A' for Active; 'I' for Inactive)
REMARK    1  A    between atoms: C_1  and  C_2
REMARK    2  A    between atoms: C_2  and  C_3
REMARK    3  A    between atoms: C_3  and  C_4
REMARK    4  A    between atoms: C_4  and  C_5
REMARK    5  A    between atoms: C_5  and  C_6
REMARK    6  A    between atoms: C_5  and  O_8
REMARK    7  A    between atoms: C_6  and  C_7
REMARK    8  A    between atoms: O_8  and  C_9
REMARK    9  A    between atoms: C_9  and  C_11
REMARK   10  A    between atoms: C_12  and  C_13
REMARK   11  A    between atoms: C_16  and  O_17
REMARK   12  A    between atoms: O_17  and  C_18
REMARK                            x       y       z     vdW  Elec       q    Type
REMARK                         _______ _______ _______ _____ _____    ______ ____
ROOT
ATOM      1  C   UNL     1      -0.062  -6.208   7.218  0.00  0.00    +0.000 C 
ATOM      2  O   UNL     1       0.638  -6.913   6.543  0.00  0.00    +0.000 OA
ENDROOT
BRANCH   1   3
ATOM      3  C   UNL     1      -0.719  -5.010   6.704  0.00  0.00    +0.000 C 
ATOM      4  C   UNL     1      -0.683  -3.869   7.382  0.00  0.00    +0.000 C 
BRANCH   4   5
ATOM      5  C   UNL     1      -1.144  -2.578   6.826  0.00  0.00    +0.000 A 
ATOM      6  C   UNL     1      -0.249  -1.582   6.490  0.00  0.00    +0.000 A 
ATOM      7  C   UNL     1      -0.711  -0.373   6.004  0.00  0.00    +0.000 A 
ATOM      8  C   UNL     1      -2.046  -0.144   5.853  0.00  0.00    +0.000 A 
ATOM      9  C   UNL     1      -2.942  -1.141   6.180  0.00  0.00    +0.000 A 
ATOM     10  C   UNL     1      -2.484  -2.350   6.663  0.00  0.00    +0.000 A 
BRANCH   8  11
ATOM     11  O   UNL     1      -2.460   1.054   5.385  0.00  0.00    +0.000 OA
ATOM     12  C   UNL     1      -3.843   1.294   5.185  0.00  0.00    +0.000 C 
ENDBRANCH   8  11
ENDBRANCH   4   5
ENDBRANCH   1   3
BRANCH   1  13
ATOM     13  O   UNL     1      -0.278  -6.462   8.535  0.00  0.00    +0.000 OA
BRANCH  13  14
ATOM     14  C   UNL     1      -1.058  -7.585   8.902  0.00  0.00    +0.000 C 
BRANCH  14  15
ATOM     15  C   UNL     1      -0.296  -8.450   9.878  0.00  0.00    +0.000 C 
ATOM     16  C   UNL     1      -0.944  -9.770  10.176  0.00  0.00    +0.000 C 
ENDBRANCH  14  15
BRANCH  14  17
ATOM     17  C   UNL     1      -2.351  -7.108   9.548  0.00  0.00    +0.000 C 
BRANCH  17  18
ATOM     18  C   UNL     1      -2.128  -5.882  10.388  0.00  0.00    +0.000 C 
BRANCH  18  20
ATOM     19  C   UNL     1      -3.350  -7.439  11.913  0.00  0.00    +0.000 C 
ATOM     20  C   UNL     1      -2.769  -6.032  11.745  0.00  0.00    +0.000 C 
ENDBRANCH  18  20
ENDBRANCH  17  18
ENDBRANCH  14  17
ENDBRANCH  13  14
ENDBRANCH   1  13
TORSDOF 9
ENDMDL
MODEL 4
REMARK VINA RESULT:      -5.5      1.301      3.331
REMARK  Name = s3_esm2_f4_ligand
REMARK  12 active torsions:
REMARK  status: ('A' for Active; 'I' for Inactive)
REMARK    1  A    between atoms: C_1  and  C_2
REMARK    2  A    between atoms: C_2  and  C_3
REMARK    3  A    between atoms: C_3  and  C_4
REMARK    4  A    between atoms: C_4  and  C_5
REMARK    5  A    between atoms: C_5  and  C_6
REMARK    6  A    between atoms: C_5  and  O_8
REMARK    7  A    between atoms: C_6  and  C_7
REMARK    8  A    between atoms: O_8  and  C_9
REMARK    9  A    between atoms: C_9  and  C_11
REMARK   10  A    between atoms: C_12  and  C_13
REMARK   11  A    between atoms: C_16  and  O_17
REMARK   12  A    between atoms: O_17  and  C_18
REMARK                            x       y       z     vdW  Elec       q    Type
REMARK                         _______ _______ _______ _____ _____    ______ ____
ROOT
ATOM      1  C   UNL     1      -0.208  -6.000   7.680  0.00  0.00    +0.000 C 
ATOM      2  O   UNL     1       0.803  -6.567   7.366  0.00  0.00    +0.000 OA
ENDROOT
BRANCH   1   3
ATOM      3  C   UNL     1      -0.384  -4.556   7.550  0.00  0.00    +0.000 C 
ATOM      4  C   UNL     1      -0.949  -4.033   6.469  0.00  0.00    +0.000 C 
BRANCH   4   5
ATOM      5  C   UNL     1      -1.344  -2.611   6.365  0.00  0.00    +0.000 A 
ATOM      6  C   UNL     1      -0.399  -1.607   6.308  0.00  0.00    +0.000 A 
ATOM      7  C   UNL     1      -0.798  -0.285   6.245  0.00  0.00    +0.000 A 
ATOM      8  C   UNL     1      -2.120   0.047   6.242  0.00  0.00    +0.000 A 
ATOM      9  C   UNL     1      -3.067  -0.955   6.292  0.00  0.00    +0.000 A 
ATOM     10  C   UNL     1      -2.672  -2.276   6.352  0.00  0.00    +0.000 A 
BRANCH   8  11
ATOM     11  O   UNL     1      -2.470   1.351   6.191  0.00  0.00    +0.000 OA
ATOM     12  C   UNL     1      -1.635   2.331   6.784  0.00  0.00    +0.000 C 
ENDBRANCH   8  11
ENDBRANCH   4   5
ENDBRANCH   1   3
BRANCH   1  13
ATOM     13  O   UNL     1      -1.267  -6.662   8.212  0.00  0.00    +0.000 OA
BRANCH  13  14
ATOM     14  C   UNL     1      -1.157  -7.206   9.515  0.00  0.00    +0.000 C 
BRANCH  14  15
ATOM     15  C   UNL     1      -2.357  -6.815  10.345  0.00  0.00    +0.000 C 
ATOM     16  C   UNL     1      -2.388  -5.372  10.751  0.00  0.00    +0.000 C 
ENDBRANCH  14  15
BRANCH  14  17
ATOM     17  C   UNL     1      -1.078  -8.723   9.419  0.00  0.00    +0.000 C 
BRANCH  17  18
ATOM     18  C   UNL     1       0.313  -9.222   9.693  0.00  0.00    +0.000 C 
BRANCH  18  20
ATOM     19  C   UNL     1       0.405 -10.153   7.376  0.00  0.00    +0.000 C 
ATOM     20  C   UNL     1       0.623 -10.443   8.865  0.00  0.00    +0.000 C 
ENDBRANCH  18  20
ENDBRANCH  17  18
ENDBRANCH  14  17
ENDBRANCH  13  14
ENDBRANCH   1  13
TORSDOF 9
ENDMDL
MODEL 5
REMARK VINA RESULT:      -5.5      1.857      6.667
REMARK  Name = s3_esm2_f4_ligand
REMARK  12 active torsions:
REMARK  status: ('A' for Active; 'I' for Inactive)
REMARK    1  A    between atoms: C_1  and  C_2
REMARK    2  A    between atoms: C_2  and  C_3
REMARK    3  A    between atoms: C_3  and  C_4
REMARK    4  A    between atoms: C_4  and  C_5
REMARK    5  A    between atoms: C_5  and  C_6
REMARK    6  A    between atoms: C_5  and  O_8
REMARK    7  A    between atoms: C_6  and  C_7
REMARK    8  A    between atoms: O_8  and  C_9
REMARK    9  A    between atoms: C_9  and  C_11
REMARK   10  A    between atoms: C_12  and  C_13
REMARK   11  A    between atoms: C_16  and  O_17
REMARK   12  A    between atoms: O_17  and  C_18
REMARK                            x       y       z     vdW  Elec       q    Type
REMARK                         _______ _______ _______ _____ _____    ______ ____
ROOT
ATOM      1  C   UNL     1      -0.689  -2.300   6.656  0.00  0.00    +0.000 C 
ATOM      2  O   UNL     1       0.208  -1.636   6.211  0.00  0.00    +0.000 OA
ENDROOT
BRANCH   1   3
ATOM      3  C   UNL     1      -0.477  -3.408   7.582  0.00  0.00    +0.000 C 
ATOM      4  C   UNL     1      -1.342  -4.412   7.654  0.00  0.00    +0.000 C 
BRANCH   4   5
ATOM      5  C   UNL     1      -1.084  -5.656   8.412  0.00  0.00    +0.000 A 
ATOM      6  C   UNL     1      -1.735  -5.919   9.600  0.00  0.00    +0.000 A 
ATOM      7  C   UNL     1      -1.448  -7.074  10.304  0.00  0.00    +0.000 A 
ATOM      8  C   UNL     1      -0.524  -7.963   9.843  0.00  0.00    +0.000 A 
ATOM      9  C   UNL     1       0.122  -7.706   8.651  0.00  0.00    +0.000 A 
ATOM     10  C   UNL     1      -0.163  -6.555   7.945  0.00  0.00    +0.000 A 
BRANCH   8  11
ATOM     11  O   UNL     1      -0.263  -9.075  10.564  0.00  0.00    +0.000 OA
ATOM     12  C   UNL     1       0.597 -10.072  10.039  0.00  0.00    +0.000 C 
ENDBRANCH   8  11
ENDBRANCH   4   5
ENDBRANCH   1   3
BRANCH   1  13
ATOM     13  O   UNL     1      -1.983  -2.084   6.305  0.00  0.00    +0.000 OA
BRANCH  13  14
ATOM     14  C   UNL     1      -2.630  -0.905   6.749  0.00  0.00    +0.000 C 
BRANCH  14  15
ATOM     15  C   UNL     1      -3.446  -0.307   5.627  0.00  0.00    +0.000 C 
ATOM     16  C   UNL     1      -2.736   0.752   4.837  0.00  0.00    +0.000 C 
ENDBRANCH  14  15
BRANCH  14  17
ATOM     17  C   UNL     1      -3.544  -1.244   7.918  0.00  0.00    +0.000 C 
BRANCH  17  18
ATOM     18  C   UNL     1      -2.868  -0.995   9.237  0.00  0.00    +0.000 C 
BRANCH  18  20
ATOM     19  C   UNL     1      -3.776  -2.007  11.333  0.00  0.00    +0.000 C 
ATOM     20  C   UNL     1      -2.895  -2.231  10.100  0.00  0.00    +0.000 C 
ENDBRANCH  18  20
ENDBRANCH  17  18
ENDBRANCH  14  17
ENDBRANCH  13  14
ENDBRANCH   1  13
TORSDOF 9
ENDMDL
MODEL 6
REMARK VINA RESULT:      -5.1      1.917      7.007
REMARK  Name = s3_esm2_f4_ligand
REMARK  12 active torsions:
REMARK  status: ('A' for Active; 'I' for Inactive)
REMARK    1  A    between atoms: C_1  and  C_2
REMARK    2  A    between atoms: C_2  and  C_3
REMARK    3  A    between atoms: C_3  and  C_4
REMARK    4  A    between atoms: C_4  and  C_5
REMARK    5  A    between atoms: C_5  and  C_6
REMARK    6  A    between atoms: C_5  and  O_8
REMARK    7  A    between atoms: C_6  and  C_7
REMARK    8  A    between atoms: O_8  and  C_9
REMARK    9  A    between atoms: C_9  and  C_11
REMARK   10  A    between atoms: C_12  and  C_13
REMARK   11  A    between atoms: C_16  and  O_17
REMARK   12  A    between atoms: O_17  and  C_18
REMARK                            x       y       z     vdW  Elec       q    Type
REMARK                         _______ _______ _______ _____ _____    ______ ____
ROOT
ATOM      1  C   UNL     1      -0.750  -1.993   6.600  0.00  0.00    +0.000 C 
ATOM      2  O   UNL     1       0.267  -1.566   6.125  0.00  0.00    +0.000 OA
ENDROOT
BRANCH   1   3
ATOM      3  C   UNL     1      -0.781  -3.089   7.564  0.00  0.00    +0.000 C 
ATOM      4  C   UNL     1      -1.101  -4.321   7.186  0.00  0.00    +0.000 C 
BRANCH   4   5
ATOM      5  C   UNL     1      -0.951  -5.505   8.060  0.00  0.00    +0.000 A 
ATOM      6  C   UNL     1      -1.739  -5.673   9.180  0.00  0.00    +0.000 A 
ATOM      7  C   UNL     1      -1.553  -6.773   9.997  0.00  0.00    +0.000 A 
ATOM      8  C   UNL     1      -0.594  -7.700   9.714  0.00  0.00    +0.000 A 
ATOM      9  C   UNL     1       0.190  -7.537   8.591  0.00  0.00    +0.000 A 
ATOM     10  C   UNL     1       0.005  -6.442   7.772  0.00  0.00    +0.000 A 
BRANCH   8  11
ATOM     11  O   UNL     1      -0.435  -8.755  10.542  0.00  0.00    +0.000 OA
ATOM     12  C   UNL     1      -1.239  -9.911  10.375  0.00  0.00    +0.000 C 
ENDBRANCH   8  11
ENDBRANCH   4   5
ENDBRANCH   1   3
BRANCH   1  13
ATOM     13  O   UNL     1      -1.967  -1.500   6.252  0.00  0.00    +0.000 OA
BRANCH  13  14
ATOM     14  C   UNL     1      -2.715  -0.772   7.208  0.00  0.00    +0.000 C 
BRANCH  14  15
ATOM     15  C   UNL     1      -1.916   0.410   7.704  0.00  0.00    +0.000 C 
ATOM     16  C   UNL     1      -1.811   1.544   6.727  0.00  0.00    +0.000 C 
ENDBRANCH  14  15
BRANCH  14  17
ATOM     17  C   UNL     1      -4.005  -0.280   6.566  0.00  0.00    +0.000 C 
BRANCH  17  18
ATOM     18  C   UNL     1      -4.238  -0.928   5.230  0.00  0.00    +0.000 C 
BRANCH  18  20
ATOM     19  C   UNL     1      -6.249  -1.854   6.389  0.00  0.00    +0.000 C 
ATOM     20  C   UNL     1      -5.684  -1.326   5.067  0.00  0.00    +0.000 C 
ENDBRANCH  18  20
ENDBRANCH  17  18
ENDBRANCH  14  17
ENDBRANCH  13  14
ENDBRANCH   1  13
TORSDOF 9
ENDMDL
MODEL 7
REMARK VINA RESULT:      -5.1      1.976      6.500
REMARK  Name = s3_esm2_f4_ligand
REMARK  12 active torsions:
REMARK  status: ('A' for Active; 'I' for Inactive)
REMARK    1  A    between atoms: C_1  and  C_2
REMARK    2  A    between atoms: C_2  and  C_3
REMARK    3  A    between atoms: C_3  and  C_4
REMARK    4  A    between atoms: C_4  and  C_5
REMARK    5  A    between atoms: C_5  and  C_6
REMARK    6  A    between atoms: C_5  and  O_8
REMARK    7  A    between atoms: C_6  and  C_7
REMARK    8  A    between atoms: O_8  and  C_9
REMARK    9  A    between atoms: C_9  and  C_11
REMARK   10  A    between atoms: C_12  and  C_13
REMARK   11  A    between atoms: C_16  and  O_17
REMARK   12  A    between atoms: O_17  and  C_18
REMARK                            x       y       z     vdW  Elec       q    Type
REMARK                         _______ _______ _______ _____ _____    ______ ____
ROOT
ATOM      1  C   UNL     1      -1.151  -1.301   6.875  0.00  0.00    +0.000 C 
ATOM      2  O   UNL     1      -0.630  -0.607   6.045  0.00  0.00    +0.000 OA
ENDROOT
BRANCH   1   3
ATOM      3  C   UNL     1      -0.650  -2.623   7.238  0.00  0.00    +0.000 C 
ATOM      4  C   UNL     1      -1.372  -3.443   7.993  0.00  0.00    +0.000 C 
BRANCH   4   5
ATOM      5  C   UNL     1      -1.019  -4.861   8.222  0.00  0.00    +0.000 A 
ATOM      6  C   UNL     1      -1.590  -5.585   9.249  0.00  0.00    +0.000 A 
ATOM      7  C   UNL     1      -1.215  -6.899   9.460  0.00  0.00    +0.000 A 
ATOM      8  C   UNL     1      -0.280  -7.495   8.667  0.00  0.00    +0.000 A 
ATOM      9  C   UNL     1       0.287  -6.775   7.636  0.00  0.00    +0.000 A 
ATOM     10  C   UNL     1      -0.087  -5.465   7.421  0.00  0.00    +0.000 A 
BRANCH   8  11
ATOM     11  O   UNL     1       0.068  -8.777   8.911  0.00  0.00    +0.000 OA
ATOM     12  C   UNL     1      -0.157  -9.338  10.194  0.00  0.00    +0.000 C 
ENDBRANCH   8  11
ENDBRANCH   4   5
ENDBRANCH   1   3
BRANCH   1  13
ATOM     13  O   UNL     1      -2.277  -0.914   7.529  0.00  0.00    +0.000 OA
BRANCH  13  14
ATOM     14  C   UNL     1      -3.419  -0.547   6.778  0.00  0.00    +0.000 C 
BRANCH  14  15
ATOM     15  C   UNL     1      -3.848  -1.693   5.892  0.00  0.00    +0.000 C 
ATOM     16  C   UNL     1      -5.081  -1.424   5.081  0.00  0.00    +0.000 C 
ENDBRANCH  14  15
BRANCH  14  17
ATOM     17  C   UNL     1      -4.552  -0.191   7.730  0.00  0.00    +0.000 C 
BRANCH  17  18
ATOM     18  C   UNL     1      -4.463  -0.972   9.011  0.00  0.00    +0.000 C 
BRANCH  18  20
ATOM     19  C   UNL     1      -6.840  -1.399   8.370  0.00  0.00    +0.000 C 
ATOM     20  C   UNL     1      -5.835  -1.329   9.524  0.00  0.00    +0.000 C 
ENDBRANCH  18  20
ENDBRANCH  17  18
ENDBRANCH  14  17
ENDBRANCH  13  14
ENDBRANCH   1  13
TORSDOF 9
ENDMDL
MODEL 8
REMARK VINA RESULT:      -5.0      3.410      5.435
REMARK  Name = s3_esm2_f4_ligand
REMARK  12 active torsions:
REMARK  status: ('A' for Active; 'I' for Inactive)
REMARK    1  A    between atoms: C_1  and  C_2
REMARK    2  A    between atoms: C_2  and  C_3
REMARK    3  A    between atoms: C_3  and  C_4
REMARK    4  A    between atoms: C_4  and  C_5
REMARK    5  A    between atoms: C_5  and  C_6
REMARK    6  A    between atoms: C_5  and  O_8
REMARK    7  A    between atoms: C_6  and  C_7
REMARK    8  A    between atoms: O_8  and  C_9
REMARK    9  A    between atoms: C_9  and  C_11
REMARK   10  A    between atoms: C_12  and  C_13
REMARK   11  A    between atoms: C_16  and  O_17
REMARK   12  A    between atoms: O_17  and  C_18
REMARK                            x       y       z     vdW  Elec       q    Type
REMARK                         _______ _______ _______ _____ _____    ______ ____
ROOT
ATOM      1  C   UNL     1      -0.159  -6.504   5.841  0.00  0.00    +0.000 C 
ATOM      2  O   UNL     1       0.310  -7.070   6.791  0.00  0.00    +0.000 OA
ENDROOT
BRANCH   1   3
ATOM      3  C   UNL     1      -0.986  -5.307   5.955  0.00  0.00    +0.000 C 
ATOM      4  C   UNL     1      -0.505  -4.194   6.497  0.00  0.00    +0.000 C 
BRANCH   4   5
ATOM      5  C   UNL     1      -1.213  -2.896   6.454  0.00  0.00    +0.000 A 
ATOM      6  C   UNL     1      -0.522  -1.702   6.491  0.00  0.00    +0.000 A 
ATOM      7  C   UNL     1      -1.213  -0.504   6.484  0.00  0.00    +0.000 A 
ATOM      8  C   UNL     1      -2.575  -0.483   6.443  0.00  0.00    +0.000 A 
ATOM      9  C   UNL     1      -3.267  -1.676   6.399  0.00  0.00    +0.000 A 
ATOM     10  C   UNL     1      -2.581  -2.872   6.403  0.00  0.00    +0.000 A 
BRANCH   8  11
ATOM     11  O   UNL     1      -3.215   0.707   6.449  0.00  0.00    +0.000 OA
ATOM     12  C   UNL     1      -3.528   1.346   5.222  0.00  0.00    +0.000 C 
ENDBRANCH   8  11
ENDBRANCH   4   5
ENDBRANCH   1   3
BRANCH   1  13
ATOM     13  O   UNL     1       0.026  -6.956   4.573  0.00  0.00    +0.000 OA
BRANCH  13  14
ATOM     14  C   UNL     1       0.349  -8.320   4.368  0.00  0.00    +0.000 C 
BRANCH  14  15
ATOM     15  C   UNL     1      -0.476  -8.884   3.235  0.00  0.00    +0.000 C 
ATOM     16  C   UNL     1      -1.550  -7.967   2.731  0.00  0.00    +0.000 C 
ENDBRANCH  14  15
BRANCH  14  17
ATOM     17  C   UNL     1       1.828  -8.438   4.028  0.00  0.00    +0.000 C 
BRANCH  17  18
ATOM     18  C   UNL     1       2.049  -8.500   2.542  0.00  0.00    +0.000 C 
BRANCH  18  20
ATOM     19  C   UNL     1       1.885  -6.895   0.634  0.00  0.00    +0.000 C 
ATOM     20  C   UNL     1       2.507  -7.167   2.007  0.00  0.00    +0.000 C 
ENDBRANCH  18  20
ENDBRANCH  17  18
ENDBRANCH  14  17
ENDBRANCH  13  14
ENDBRANCH   1  13
TORSDOF 9
ENDMDL
MODEL 9
REMARK VINA RESULT:      -4.9      1.872      6.845
REMARK  Name = s3_esm2_f4_ligand
REMARK  12 active torsions:
REMARK  status: ('A' for Active; 'I' for Inactive)
REMARK    1  A    between atoms: C_1  and  C_2
REMARK    2  A    between atoms: C_2  and  C_3
REMARK    3  A    between atoms: C_3  and  C_4
REMARK    4  A    between atoms: C_4  and  C_5
REMARK    5  A    between atoms: C_5  and  C_6
REMARK    6  A    between atoms: C_5  and  O_8
REMARK    7  A    between atoms: C_6  and  C_7
REMARK    8  A    between atoms: O_8  and  C_9
REMARK    9  A    between atoms: C_9  and  C_11
REMARK   10  A    between atoms: C_12  and  C_13
REMARK   11  A    between atoms: C_16  and  O_17
REMARK   12  A    between atoms: O_17  and  C_18
REMARK                            x       y       z     vdW  Elec       q    Type
REMARK                         _______ _______ _______ _____ _____    ______ ____
ROOT
ATOM      1  C   UNL     1      -0.808  -1.930   6.947  0.00  0.00    +0.000 C 
ATOM      2  O   UNL     1       0.130  -1.754   6.218  0.00  0.00    +0.000 OA
ENDROOT
BRANCH   1   3
ATOM      3  C   UNL     1      -0.989  -3.146   7.734  0.00  0.00    +0.000 C 
ATOM      4  C   UNL     1      -0.745  -4.341   7.209  0.00  0.00    +0.000 C 
BRANCH   4   5
ATOM      5  C   UNL     1      -0.708  -5.587   8.005  0.00  0.00    +0.000 A 
ATOM      6  C   UNL     1      -1.546  -5.773   9.085  0.00  0.00    +0.000 A 
ATOM      7  C   UNL     1      -1.465  -6.934   9.831  0.00  0.00    +0.000 A 
ATOM      8  C   UNL     1      -0.562  -7.905   9.517  0.00  0.00    +0.000 A 
ATOM      9  C   UNL     1       0.272  -7.725   8.433  0.00  0.00    +0.000 A 
ATOM     10  C   UNL     1       0.192  -6.568   7.685  0.00  0.00    +0.000 A 
BRANCH   8  11
ATOM     11  O   UNL     1      -0.505  -9.021  10.276  0.00  0.00    +0.000 OA
ATOM     12  C   UNL     1       0.516  -9.979  10.048  0.00  0.00    +0.000 C 
ENDBRANCH   8  11
ENDBRANCH   4   5
ENDBRANCH   1   3
BRANCH   1  13
ATOM     13  O   UNL     1      -1.798  -1.009   7.078  0.00  0.00    +0.000 OA
BRANCH  13  14
ATOM     14  C   UNL     1      -3.011  -1.385   7.703  0.00  0.00    +0.000 C 
BRANCH  14  15
ATOM     15  C   UNL     1      -3.163  -0.663   9.020  0.00  0.00    +0.000 C 
ATOM     16  C   UNL     1      -3.190  -1.560  10.222  0.00  0.00    +0.000 C 
ENDBRANCH  14  15
BRANCH  14  17
ATOM     17  C   UNL     1      -4.176  -1.028   6.790  0.00  0.00    +0.000 C 
BRANCH  17  18
ATOM     18  C   UNL     1      -3.715  -0.763   5.385  0.00  0.00    +0.000 C 
BRANCH  18  20
ATOM     19  C   UNL     1      -3.008   0.977   3.737  0.00  0.00    +0.000 C 
ATOM     20  C   UNL     1      -3.624   0.718   5.115  0.00  0.00    +0.000 C 
ENDBRANCH  18  20
ENDBRANCH  17  18
ENDBRANCH  14  17
ENDBRANCH  13  14
ENDBRANCH   1  13
TORSDOF 9
ENDMDL
