REMARK  Name = shuffle_control_esm0_ligand
REMARK  12 active torsions:
REMARK  status: ('A' for Active; 'I' for Inactive)
REMARK    1  A    between atoms: C_1  and  C_2
REMARK    2  A    between atoms: C_2  and  C_3
REMARK    3  A    between atoms: C_3  and  C_4
REMARK    4  A    between atoms: C_4  and  C_5
REMARK    5  A    between atoms: C_5  and  C_6
REMARK    6  A    between atoms: C_5  and  O_8
REMARK    7  A    between atoms: C_6  and  C_7
REMARK    8  A    between atoms: O_8  and  C_9
REMARK    9  A    between atoms: C_9  and  C_11
REMARK   10  A    between atoms: C_12  and  C_13
REMARK   11  A    between atoms: C_16  and  O_17
REMARK   12  A    between atoms: O_17  and  C_18
REMARK                            x       y       z     vdW  Elec       q    Type
REMARK                         _______ _______ _______ _____ _____    ______ ____
ROOT
ATOM      1  C   UNL     1       1.668  -1.777  -2.493  0.00  0.00    +0.000 C 
ATOM      2  O   UNL     1       1.786  -0.618  -2.251  0.00  0.00    +0.000 OA
ENDROOT
BRANCH   1   3
ATOM      3  C   UNL     1       2.707  -2.804  -2.179  0.00  0.00    +0.000 C 
ATOM      4  C   UNL     1       3.569  -3.201  -3.098  0.00  0.00    +0.000 C 
BRANCH   4   5
ATOM      5  C   UNL     1       4.545  -4.311  -2.887  0.00  0.00    +0.000 A 
ATOM      6  C   UNL     1       4.624  -5.301  -3.833  0.00  0.00    +0.000 A 
ATOM      7  C   UNL     1       5.493  -6.371  -3.674  0.00  0.00    +0.000 A 
ATOM      8  C   UNL     1       6.305  -6.452  -2.558  0.00  0.00    +0.000 A 
ATOM      9  C   UNL     1       6.232  -5.441  -1.600  0.00  0.00    +0.000 A 
ATOM     10  C   UNL     1       5.357  -4.364  -1.769  0.00  0.00    +0.000 A 
BRANCH   8  11
ATOM     11  O   UNL     1       7.154  -7.482  -2.360  0.00  0.00    +0.000 OA
ATOM     12  C   UNL     1       7.163  -8.572  -3.279  0.00  0.00    +0.000 C 
ENDBRANCH   8  11
ENDBRANCH   4   5
ENDBRANCH   1   3
BRANCH   1  13
ATOM     13  O   UNL     1       0.558  -2.271  -3.096  0.00  0.00    +0.000 OA
BRANCH  13  14
ATOM     14  C   UNL     1      -0.478  -1.433  -3.600  0.00  0.00    +0.000 C 
BRANCH  14  15
ATOM     15  C   UNL     1      -1.740  -1.498  -2.759  0.00  0.00    +0.000 C 
ATOM     16  C   UNL     1      -1.654  -0.910  -1.380  0.00  0.00    +0.000 C 
ENDBRANCH  14  15
BRANCH  14  17
ATOM     17  C   UNL     1      -0.820  -1.902  -4.976  0.00  0.00    +0.000 C 
BRANCH  17  18
ATOM     18  C   UNL     1       0.355  -2.219  -5.836  0.00  0.00    +0.000 C 
BRANCH  18  20
ATOM     19  C   UNL     1      -1.278  -2.722  -7.730  0.00  0.00    +0.000 C 
ATOM     20  C   UNL     1       0.083  -2.885  -7.150  0.00  0.00    +0.000 C 
ENDBRANCH  18  20
ENDBRANCH  17  18
ENDBRANCH  14  17
ENDBRANCH  13  14
ENDBRANCH   1  13
TORSDOF 9
