MODEL 1
REMARK VINA RESULT:      -4.9      0.000      0.000
REMARK  Name = shuffle_control_esm0_ligand
REMARK  12 active torsions:
REMARK  status: ('A' for Active; 'I' for Inactive)
REMARK    1  A    between atoms: C_1  and  C_2
REMARK    2  A    between atoms: C_2  and  C_3
REMARK    3  A    between atoms: C_3  and  C_4
REMARK    4  A    between atoms: C_4  and  C_5
REMARK    5  A    between atoms: C_5  and  C_6
REMARK    6  A    between atoms: C_5  and  O_8
REMARK    7  A    between atoms: C_6  and  C_7
REMARK    8  A    between atoms: O_8  and  C_9
REMARK    9  A    between atoms: C_9  and  C_11
REMARK   10  A    between atoms: C_12  and  C_13
REMARK   11  A    between atoms: C_16  and  O_17
REMARK   12  A    between atoms: O_17  and  C_18
REMARK                            x       y       z     vdW  Elec       q    Type
REMARK                         _______ _______ _______ _____ _____    ______ ____
ROOT
ATOM      1  C   UNL     1       1.300   3.723   4.036  0.00  0.00    +0.000 C 
ATOM      2  O   UNL     1       1.198   4.907   3.977  0.00  0.00    +0.000 OA
ENDROOT
BRANCH   1   3
ATOM      3  C   UNL     1       2.268   2.928   3.221  0.00  0.00    +0.000 C 
ATOM      4  C   UNL     1       3.517   3.330   3.067  0.00  0.00    +0.000 C 
BRANCH   4   5
ATOM      5  C   UNL     1       4.495   2.652   2.165  0.00  0.00    +0.000 A 
ATOM      6  C   UNL     1       5.236   3.424   1.306  0.00  0.00    +0.000 A 
ATOM      7  C   UNL     1       6.139   2.845   0.426  0.00  0.00    +0.000 A 
ATOM      8  C   UNL     1       6.314   1.474   0.407  0.00  0.00    +0.000 A 
ATOM      9  C   UNL     1       5.568   0.689   1.285  0.00  0.00    +0.000 A 
ATOM     10  C   UNL     1       4.663   1.280   2.172  0.00  0.00    +0.000 A 
BRANCH   8  11
ATOM     11  O   UNL     1       7.172   0.871  -0.443  0.00  0.00    +0.000 OA
ATOM     12  C   UNL     1       7.617  -0.456  -0.168  0.00  0.00    +0.000 C 
ENDBRANCH   8  11
ENDBRANCH   4   5
ENDBRANCH   1   3
BRANCH   1  13
ATOM     13  O   UNL     1       0.522   2.979   4.862  0.00  0.00    +0.000 OA
BRANCH  13  14
ATOM     14  C   UNL     1      -0.146   1.798   4.428  0.00  0.00    +0.000 C 
BRANCH  14  15
ATOM     15  C   UNL     1      -1.525   2.085   3.860  0.00  0.00    +0.000 C 
ATOM     16  C   UNL     1      -2.284   0.906   3.322  0.00  0.00    +0.000 C 
ENDBRANCH  14  15
BRANCH  14  17
ATOM     17  C   UNL     1      -0.316   0.905   5.612  0.00  0.00    +0.000 C 
BRANCH  17  18
ATOM     18  C   UNL     1      -0.987   1.540   6.781  0.00  0.00    +0.000 C 
BRANCH  18  20
ATOM     19  C   UNL     1      -3.489   1.046   6.850  0.00  0.00    +0.000 C 
ATOM     20  C   UNL     1      -2.130   0.797   7.403  0.00  0.00    +0.000 C 
ENDBRANCH  18  20
ENDBRANCH  17  18
ENDBRANCH  14  17
ENDBRANCH  13  14
ENDBRANCH   1  13
TORSDOF 9
ENDMDL
MODEL 2
REMARK VINA RESULT:      -4.9      2.281      7.374
REMARK  Name = shuffle_control_esm0_ligand
REMARK  12 active torsions:
REMARK  status: ('A' for Active; 'I' for Inactive)
REMARK    1  A    between atoms: C_1  and  C_2
REMARK    2  A    between atoms: C_2  and  C_3
REMARK    3  A    between atoms: C_3  and  C_4
REMARK    4  A    between atoms: C_4  and  C_5
REMARK    5  A    between atoms: C_5  and  C_6
REMARK    6  A    between atoms: C_5  and  O_8
REMARK    7  A    between atoms: C_6  and  C_7
REMARK    8  A    between atoms: O_8  and  C_9
REMARK    9  A    between atoms: C_9  and  C_11
REMARK   10  A    between atoms: C_12  and  C_13
REMARK   11  A    between atoms: C_16  and  O_17
REMARK   12  A    between atoms: O_17  and  C_18
REMARK                            x       y       z     vdW  Elec       q    Type
REMARK                         _______ _______ _______ _____ _____    ______ ____
ROOT
ATOM      1  C   UNL     1       1.454   4.341   3.032  0.00  0.00    +0.000 C 
ATOM      2  O   UNL     1       1.167   5.491   2.927  0.00  0.00    +0.000 OA
ENDROOT
BRANCH   1   3
ATOM      3  C   UNL     1       0.849   3.420   4.041  0.00  0.00    +0.000 C 
ATOM      4  C   UNL     1      -0.270   2.768   3.782  0.00  0.00    +0.000 C 
BRANCH   4   5
ATOM      5  C   UNL     1      -0.991   1.935   4.790  0.00  0.00    +0.000 A 
ATOM      6  C   UNL     1      -2.170   1.338   4.422  0.00  0.00    +0.000 A 
ATOM      7  C   UNL     1      -2.895   0.577   5.327  0.00  0.00    +0.000 A 
ATOM      8  C   UNL     1      -2.435   0.399   6.619  0.00  0.00    +0.000 A 
ATOM      9  C   UNL     1      -1.232   0.998   6.991  0.00  0.00    +0.000 A 
ATOM     10  C   UNL     1      -0.504   1.761   6.072  0.00  0.00    +0.000 A 
BRANCH   8  11
ATOM     11  O   UNL     1      -3.117  -0.323   7.532  0.00  0.00    +0.000 OA
ATOM     12  C   UNL     1      -3.315  -1.719   7.319  0.00  0.00    +0.000 C 
ENDBRANCH   8  11
ENDBRANCH   4   5
ENDBRANCH   1   3
BRANCH   1  13
ATOM     13  O   UNL     1       2.381   3.760   2.230  0.00  0.00    +0.000 OA
BRANCH  13  14
ATOM     14  C   UNL     1       3.161   2.642   2.645  0.00  0.00    +0.000 C 
BRANCH  14  15
ATOM     15  C   UNL     1       4.643   2.962   2.722  0.00  0.00    +0.000 C 
ATOM     16  C   UNL     1       5.268   3.531   1.481  0.00  0.00    +0.000 C 
ENDBRANCH  14  15
BRANCH  14  17
ATOM     17  C   UNL     1       2.979   1.556   1.636  0.00  0.00    +0.000 C 
BRANCH  17  18
ATOM     18  C   UNL     1       2.244   0.359   2.135  0.00  0.00    +0.000 C 
BRANCH  18  20
ATOM     19  C   UNL     1       1.375  -0.834   4.215  0.00  0.00    +0.000 C 
ATOM     20  C   UNL     1       2.438  -0.014   3.572  0.00  0.00    +0.000 C 
ENDBRANCH  18  20
ENDBRANCH  17  18
ENDBRANCH  14  17
ENDBRANCH  13  14
ENDBRANCH   1  13
TORSDOF 9
ENDMDL
MODEL 3
REMARK VINA RESULT:      -4.9      3.845      7.628
REMARK  Name = shuffle_control_esm0_ligand
REMARK  12 active torsions:
REMARK  status: ('A' for Active; 'I' for Inactive)
REMARK    1  A    between atoms: C_1  and  C_2
REMARK    2  A    between atoms: C_2  and  C_3
REMARK    3  A    between atoms: C_3  and  C_4
REMARK    4  A    between atoms: C_4  and  C_5
REMARK    5  A    between atoms: C_5  and  C_6
REMARK    6  A    between atoms: C_5  and  O_8
REMARK    7  A    between atoms: C_6  and  C_7
REMARK    8  A    between atoms: O_8  and  C_9
REMARK    9  A    between atoms: C_9  and  C_11
REMARK   10  A    between atoms: C_12  and  C_13
REMARK   11  A    between atoms: C_16  and  O_17
REMARK   12  A    between atoms: O_17  and  C_18
REMARK                            x       y       z     vdW  Elec       q    Type
REMARK                         _______ _______ _______ _____ _____    ______ ____
ROOT
ATOM      1  C   UNL     1       1.377   3.272   4.174  0.00  0.00    +0.000 C 
ATOM      2  O   UNL     1       2.523   3.274   4.492  0.00  0.00    +0.000 OA
ENDROOT
BRANCH   1   3
ATOM      3  C   UNL     1       0.403   2.213   4.576  0.00  0.00    +0.000 C 
ATOM      4  C   UNL     1      -0.295   2.319   5.693  0.00  0.00    +0.000 C 
BRANCH   4   5
ATOM      5  C   UNL     1      -1.186   1.241   6.214  0.00  0.00    +0.000 A 
ATOM      6  C   UNL     1      -0.634   0.019   6.504  0.00  0.00    +0.000 A 
ATOM      7  C   UNL     1      -1.420  -1.027   6.964  0.00  0.00    +0.000 A 
ATOM      8  C   UNL     1      -2.779  -0.852   7.147  0.00  0.00    +0.000 A 
ATOM      9  C   UNL     1      -3.340   0.392   6.861  0.00  0.00    +0.000 A 
ATOM     10  C   UNL     1      -2.541   1.443   6.402  0.00  0.00    +0.000 A 
BRANCH   8  11
ATOM     11  O   UNL     1      -3.580  -1.848   7.580  0.00  0.00    +0.000 OA
ATOM     12  C   UNL     1      -4.019  -2.847   6.662  0.00  0.00    +0.000 C 
ENDBRANCH   8  11
ENDBRANCH   4   5
ENDBRANCH   1   3
BRANCH   1  13
ATOM     13  O   UNL     1       0.850   4.250   3.396  0.00  0.00    +0.000 OA
BRANCH  13  14
ATOM     14  C   UNL     1       0.810   4.161   1.975  0.00  0.00    +0.000 C 
BRANCH  14  15
ATOM     15  C   UNL     1       1.472   5.347   1.298  0.00  0.00    +0.000 C 
ATOM     16  C   UNL     1       1.231   6.691   1.923  0.00  0.00    +0.000 C 
ENDBRANCH  14  15
BRANCH  14  17
ATOM     17  C   UNL     1      -0.623   4.135   1.555  0.00  0.00    +0.000 C 
BRANCH  17  18
ATOM     18  C   UNL     1      -1.153   2.781   1.232  0.00  0.00    +0.000 C 
BRANCH  18  20
ATOM     19  C   UNL     1      -2.684   1.371   2.707  0.00  0.00    +0.000 C 
ATOM     20  C   UNL     1      -2.539   2.458   1.701  0.00  0.00    +0.000 C 
ENDBRANCH  18  20
ENDBRANCH  17  18
ENDBRANCH  14  17
ENDBRANCH  13  14
ENDBRANCH   1  13
TORSDOF 9
ENDMDL
MODEL 4
REMARK VINA RESULT:      -4.8      2.589      7.362
REMARK  Name = shuffle_control_esm0_ligand
REMARK  12 active torsions:
REMARK  status: ('A' for Active; 'I' for Inactive)
REMARK    1  A    between atoms: C_1  and  C_2
REMARK    2  A    between atoms: C_2  and  C_3
REMARK    3  A    between atoms: C_3  and  C_4
REMARK    4  A    between atoms: C_4  and  C_5
REMARK    5  A    between atoms: C_5  and  C_6
REMARK    6  A    between atoms: C_5  and  O_8
REMARK    7  A    between atoms: C_6  and  C_7
REMARK    8  A    between atoms: O_8  and  C_9
REMARK    9  A    between atoms: C_9  and  C_11
REMARK   10  A    between atoms: C_12  and  C_13
REMARK   11  A    between atoms: C_16  and  O_17
REMARK   12  A    between atoms: O_17  and  C_18
REMARK                            x       y       z     vdW  Elec       q    Type
REMARK                         _______ _______ _______ _____ _____    ______ ____
ROOT
ATOM      1  C   UNL     1       0.923   2.660   0.063  0.00  0.00    +0.000 C 
ATOM      2  O   UNL     1       0.282   2.538  -0.932  0.00  0.00    +0.000 OA
ENDROOT
BRANCH   1   3
ATOM      3  C   UNL     1       0.513   2.112   1.391  0.00  0.00    +0.000 C 
ATOM      4  C   UNL     1      -0.515   2.618   2.047  0.00  0.00    +0.000 C 
BRANCH   4   5
ATOM      5  C   UNL     1      -0.896   2.203   3.429  0.00  0.00    +0.000 A 
ATOM      6  C   UNL     1       0.001   2.412   4.446  0.00  0.00    +0.000 A 
ATOM      7  C   UNL     1      -0.290   2.020   5.744  0.00  0.00    +0.000 A 
ATOM      8  C   UNL     1      -1.499   1.418   6.039  0.00  0.00    +0.000 A 
ATOM      9  C   UNL     1      -2.415   1.213   5.008  0.00  0.00    +0.000 A 
ATOM     10  C   UNL     1      -2.117   1.614   3.702  0.00  0.00    +0.000 A 
BRANCH   8  11
ATOM     11  O   UNL     1      -1.814   1.010   7.286  0.00  0.00    +0.000 OA
ATOM     12  C   UNL     1      -3.056   0.349   7.517  0.00  0.00    +0.000 C 
ENDBRANCH   8  11
ENDBRANCH   4   5
ENDBRANCH   1   3
BRANCH   1  13
ATOM     13  O   UNL     1       2.102   3.330   0.074  0.00  0.00    +0.000 OA
BRANCH  13  14
ATOM     14  C   UNL     1       2.581   4.019   1.225  0.00  0.00    +0.000 C 
BRANCH  14  15
ATOM     15  C   UNL     1       2.160   5.478   1.247  0.00  0.00    +0.000 C 
ATOM     16  C   UNL     1       1.342   5.919   2.426  0.00  0.00    +0.000 C 
ENDBRANCH  14  15
BRANCH  14  17
ATOM     17  C   UNL     1       4.073   3.974   1.201  0.00  0.00    +0.000 C 
BRANCH  17  18
ATOM     18  C   UNL     1       4.691   3.208   2.321  0.00  0.00    +0.000 C 
BRANCH  18  20
ATOM     19  C   UNL     1       3.542   1.151   3.296  0.00  0.00    +0.000 C 
ATOM     20  C   UNL     1       3.767   2.621   3.342  0.00  0.00    +0.000 C 
ENDBRANCH  18  20
ENDBRANCH  17  18
ENDBRANCH  14  17
ENDBRANCH  13  14
ENDBRANCH   1  13
TORSDOF 9
ENDMDL
MODEL 5
REMARK VINA RESULT:      -4.8      3.189      8.177
REMARK  Name = shuffle_control_esm0_ligand
REMARK  12 active torsions:
REMARK  status: ('A' for Active; 'I' for Inactive)
REMARK    1  A    between atoms: C_1  and  C_2
REMARK    2  A    between atoms: C_2  and  C_3
REMARK    3  A    between atoms: C_3  and  C_4
REMARK    4  A    between atoms: C_4  and  C_5
REMARK    5  A    between atoms: C_5  and  C_6
REMARK    6  A    between atoms: C_5  and  O_8
REMARK    7  A    between atoms: C_6  and  C_7
REMARK    8  A    between atoms: O_8  and  C_9
REMARK    9  A    between atoms: C_9  and  C_11
REMARK   10  A    between atoms: C_12  and  C_13
REMARK   11  A    between atoms: C_16  and  O_17
REMARK   12  A    between atoms: O_17  and  C_18
REMARK                            x       y       z     vdW  Elec       q    Type
REMARK                         _______ _______ _______ _____ _____    ______ ____
ROOT
ATOM      1  C   UNL     1      -0.009   2.152   4.810  0.00  0.00    +0.000 C 
ATOM      2  O   UNL     1       0.323   1.184   5.415  0.00  0.00    +0.000 OA
ENDROOT
BRANCH   1   3
ATOM      3  C   UNL     1      -1.329   2.296   4.125  0.00  0.00    +0.000 C 
ATOM      4  C   UNL     1      -1.794   1.340   3.339  0.00  0.00    +0.000 C 
BRANCH   4   5
ATOM      5  C   UNL     1      -3.040   1.474   2.528  0.00  0.00    +0.000 A 
ATOM      6  C   UNL     1      -4.121   0.696   2.857  0.00  0.00    +0.000 A 
ATOM      7  C   UNL     1      -5.295   0.759   2.120  0.00  0.00    +0.000 A 
ATOM      8  C   UNL     1      -5.398   1.619   1.042  0.00  0.00    +0.000 A 
ATOM      9  C   UNL     1      -4.303   2.417   0.713  0.00  0.00    +0.000 A 
ATOM     10  C   UNL     1      -3.125   2.351   1.463  0.00  0.00    +0.000 A 
BRANCH   8  11
ATOM     11  O   UNL     1      -6.517   1.701   0.292  0.00  0.00    +0.000 OA
ATOM     12  C   UNL     1      -7.023   2.982  -0.077  0.00  0.00    +0.000 C 
ENDBRANCH   8  11
ENDBRANCH   4   5
ENDBRANCH   1   3
BRANCH   1  13
ATOM     13  O   UNL     1       0.807   3.228   4.681  0.00  0.00    +0.000 OA
BRANCH  13  14
ATOM     14  C   UNL     1       1.603   3.452   3.521  0.00  0.00    +0.000 C 
BRANCH  14  15
ATOM     15  C   UNL     1       3.042   3.004   3.707  0.00  0.00    +0.000 C 
ATOM     16  C   UNL     1       3.987   3.312   2.582  0.00  0.00    +0.000 C 
ENDBRANCH  14  15
BRANCH  14  17
ATOM     17  C   UNL     1       1.613   4.920   3.246  0.00  0.00    +0.000 C 
BRANCH  17  18
ATOM     18  C   UNL     1       0.964   5.318   1.965  0.00  0.00    +0.000 C 
BRANCH  18  20
ATOM     19  C   UNL     1      -0.220   4.157   0.026  0.00  0.00    +0.000 C 
ATOM     20  C   UNL     1      -0.173   4.471   1.480  0.00  0.00    +0.000 C 
ENDBRANCH  18  20
ENDBRANCH  17  18
ENDBRANCH  14  17
ENDBRANCH  13  14
ENDBRANCH   1  13
TORSDOF 9
ENDMDL
MODEL 6
REMARK VINA RESULT:      -4.8      3.144      8.079
REMARK  Name = shuffle_control_esm0_ligand
REMARK  12 active torsions:
REMARK  status: ('A' for Active; 'I' for Inactive)
REMARK    1  A    between atoms: C_1  and  C_2
REMARK    2  A    between atoms: C_2  and  C_3
REMARK    3  A    between atoms: C_3  and  C_4
REMARK    4  A    between atoms: C_4  and  C_5
REMARK    5  A    between atoms: C_5  and  C_6
REMARK    6  A    between atoms: C_5  and  O_8
REMARK    7  A    between atoms: C_6  and  C_7
REMARK    8  A    between atoms: O_8  and  C_9
REMARK    9  A    between atoms: C_9  and  C_11
REMARK   10  A    between atoms: C_12  and  C_13
REMARK   11  A    between atoms: C_16  and  O_17
REMARK   12  A    between atoms: O_17  and  C_18
REMARK                            x       y       z     vdW  Elec       q    Type
REMARK                         _______ _______ _______ _____ _____    ______ ____
ROOT
ATOM      1  C   UNL     1      -0.021   2.115   4.568  0.00  0.00    +0.000 C 
ATOM      2  O   UNL     1       0.496   1.085   4.867  0.00  0.00    +0.000 OA
ENDROOT
BRANCH   1   3
ATOM      3  C   UNL     1      -1.370   2.217   3.933  0.00  0.00    +0.000 C 
ATOM      4  C   UNL     1      -1.597   1.706   2.737  0.00  0.00    +0.000 C 
BRANCH   4   5
ATOM      5  C   UNL     1      -2.880   1.885   1.995  0.00  0.00    +0.000 A 
ATOM      6  C   UNL     1      -2.914   2.773   0.950  0.00  0.00    +0.000 A 
ATOM      7  C   UNL     1      -4.087   2.999   0.244  0.00  0.00    +0.000 A 
ATOM      8  C   UNL     1      -5.245   2.322   0.578  0.00  0.00    +0.000 A 
ATOM      9  C   UNL     1      -5.210   1.412   1.634  0.00  0.00    +0.000 A 
ATOM     10  C   UNL     1      -4.023   1.186   2.338  0.00  0.00    +0.000 A 
BRANCH   8  11
ATOM     11  O   UNL     1      -6.409   2.523  -0.075  0.00  0.00    +0.000 OA
ATOM     12  C   UNL     1      -6.388   3.022  -1.411  0.00  0.00    +0.000 C 
ENDBRANCH   8  11
ENDBRANCH   4   5
ENDBRANCH   1   3
BRANCH   1  13
ATOM     13  O   UNL     1       0.590   3.308   4.778  0.00  0.00    +0.000 OA
BRANCH  13  14
ATOM     14  C   UNL     1       1.582   3.826   3.896  0.00  0.00    +0.000 C 
BRANCH  14  15
ATOM     15  C   UNL     1       0.984   4.422   2.634  0.00  0.00    +0.000 C 
ATOM     16  C   UNL     1       1.327   5.855   2.346  0.00  0.00    +0.000 C 
ENDBRANCH  14  15
BRANCH  14  17
ATOM     17  C   UNL     1       2.473   2.698   3.492  0.00  0.00    +0.000 C 
BRANCH  17  18
ATOM     18  C   UNL     1       3.930   2.971   3.641  0.00  0.00    +0.000 C 
BRANCH  18  20
ATOM     19  C   UNL     1       5.122   2.051   1.582  0.00  0.00    +0.000 C 
ATOM     20  C   UNL     1       4.711   3.232   2.389  0.00  0.00    +0.000 C 
ENDBRANCH  18  20
ENDBRANCH  17  18
ENDBRANCH  14  17
ENDBRANCH  13  14
ENDBRANCH   1  13
TORSDOF 9
ENDMDL
MODEL 7
REMARK VINA RESULT:      -4.8      2.993      8.648
REMARK  Name = shuffle_control_esm0_ligand
REMARK  12 active torsions:
REMARK  status: ('A' for Active; 'I' for Inactive)
REMARK    1  A    between atoms: C_1  and  C_2
REMARK    2  A    between atoms: C_2  and  C_3
REMARK    3  A    between atoms: C_3  and  C_4
REMARK    4  A    between atoms: C_4  and  C_5
REMARK    5  A    between atoms: C_5  and  C_6
REMARK    6  A    between atoms: C_5  and  O_8
REMARK    7  A    between atoms: C_6  and  C_7
REMARK    8  A    between atoms: O_8  and  C_9
REMARK    9  A    between atoms: C_9  and  C_11
REMARK   10  A    between atoms: C_12  and  C_13
REMARK   11  A    between atoms: C_16  and  O_17
REMARK   12  A    between atoms: O_17  and  C_18
REMARK                            x       y       z     vdW  Elec       q    Type
REMARK                         _______ _______ _______ _____ _____    ______ ____
ROOT
ATOM      1  C   UNL     1       0.189   2.772   4.026  0.00  0.00    +0.000 C 
ATOM      2  O   UNL     1       0.469   3.223   5.091  0.00  0.00    +0.000 OA
ENDROOT
BRANCH   1   3
ATOM      3  C   UNL     1      -1.140   2.173   3.698  0.00  0.00    +0.000 C 
ATOM      4  C   UNL     1      -1.704   2.373   2.520  0.00  0.00    +0.000 C 
BRANCH   4   5
ATOM      5  C   UNL     1      -3.081   1.911   2.176  0.00  0.00    +0.000 A 
ATOM      6  C   UNL     1      -3.625   0.880   2.900  0.00  0.00    +0.000 A 
ATOM      7  C   UNL     1      -4.890   0.392   2.605  0.00  0.00    +0.000 A 
ATOM      8  C   UNL     1      -5.631   0.946   1.578  0.00  0.00    +0.000 A 
ATOM      9  C   UNL     1      -5.083   2.000   0.848  0.00  0.00    +0.000 A 
ATOM     10  C   UNL     1      -3.809   2.489   1.153  0.00  0.00    +0.000 A 
BRANCH   8  11
ATOM     11  O   UNL     1      -6.859   0.492   1.252  0.00  0.00    +0.000 OA
ATOM     12  C   UNL     1      -7.562  -0.350   2.163  0.00  0.00    +0.000 C 
ENDBRANCH   8  11
ENDBRANCH   4   5
ENDBRANCH   1   3
BRANCH   1  13
ATOM     13  O   UNL     1       1.077   2.757   3.001  0.00  0.00    +0.000 OA
BRANCH  13  14
ATOM     14  C   UNL     1       2.266   3.542   3.005  0.00  0.00    +0.000 C 
BRANCH  14  15
ATOM     15  C   UNL     1       2.228   4.660   1.980  0.00  0.00    +0.000 C 
ATOM     16  C   UNL     1       1.304   5.806   2.276  0.00  0.00    +0.000 C 
ENDBRANCH  14  15
BRANCH  14  17
ATOM     17  C   UNL     1       3.410   2.645   2.662  0.00  0.00    +0.000 C 
BRANCH  17  18
ATOM     18  C   UNL     1       4.720   3.338   2.506  0.00  0.00    +0.000 C 
BRANCH  18  20
ATOM     19  C   UNL     1       6.204   4.300   0.668  0.00  0.00    +0.000 C 
ATOM     20  C   UNL     1       5.451   3.138   1.214  0.00  0.00    +0.000 C 
ENDBRANCH  18  20
ENDBRANCH  17  18
ENDBRANCH  14  17
ENDBRANCH  13  14
ENDBRANCH   1  13
TORSDOF 9
ENDMDL
MODEL 8
REMARK VINA RESULT:      -4.8      3.036      7.714
REMARK  Name = shuffle_control_esm0_ligand
REMARK  12 active torsions:
REMARK  status: ('A' for Active; 'I' for Inactive)
REMARK    1  A    between atoms: C_1  and  C_2
REMARK    2  A    between atoms: C_2  and  C_3
REMARK    3  A    between atoms: C_3  and  C_4
REMARK    4  A    between atoms: C_4  and  C_5
REMARK    5  A    between atoms: C_5  and  C_6
REMARK    6  A    between atoms: C_5  and  O_8
REMARK    7  A    between atoms: C_6  and  C_7
REMARK    8  A    between atoms: O_8  and  C_9
REMARK    9  A    between atoms: C_9  and  C_11
REMARK   10  A    between atoms: C_12  and  C_13
REMARK   11  A    between atoms: C_16  and  O_17
REMARK   12  A    between atoms: O_17  and  C_18
REMARK                            x       y       z     vdW  Elec       q    Type
REMARK                         _______ _______ _______ _____ _____    ______ ____
ROOT
ATOM      1  C   UNL     1       0.325   3.806   1.935  0.00  0.00    +0.000 C 
ATOM      2  O   UNL     1       1.111   3.617   1.061  0.00  0.00    +0.000 OA
ENDROOT
BRANCH   1   3
ATOM      3  C   UNL     1      -1.130   3.484   1.831  0.00  0.00    +0.000 C 
ATOM      4  C   UNL     1      -1.589   2.296   2.184  0.00  0.00    +0.000 C 
BRANCH   4   5
ATOM      5  C   UNL     1      -3.006   1.869   1.985  0.00  0.00    +0.000 A 
ATOM      6  C   UNL     1      -3.489   0.833   2.744  0.00  0.00    +0.000 A 
ATOM      7  C   UNL     1      -4.789   0.376   2.582  0.00  0.00    +0.000 A 
ATOM      8  C   UNL     1      -5.627   0.968   1.654  0.00  0.00    +0.000 A 
ATOM      9  C   UNL     1      -5.139   2.027   0.889  0.00  0.00    +0.000 A 
ATOM     10  C   UNL     1      -3.830   2.484   1.061  0.00  0.00    +0.000 A 
BRANCH   8  11
ATOM     11  O   UNL     1      -6.893   0.545   1.457  0.00  0.00    +0.000 OA
ATOM     12  C   UNL     1      -7.484  -0.362   2.385  0.00  0.00    +0.000 C 
ENDBRANCH   8  11
ENDBRANCH   4   5
ENDBRANCH   1   3
BRANCH   1  13
ATOM     13  O   UNL     1       0.695   4.351   3.121  0.00  0.00    +0.000 OA
BRANCH  13  14
ATOM     14  C   UNL     1       1.447   3.631   4.093  0.00  0.00    +0.000 C 
BRANCH  14  15
ATOM     15  C   UNL     1       2.375   2.605   3.469  0.00  0.00    +0.000 C 
ATOM     16  C   UNL     1       3.845   2.902   3.544  0.00  0.00    +0.000 C 
ENDBRANCH  14  15
BRANCH  14  17
ATOM     17  C   UNL     1       0.485   2.903   4.973  0.00  0.00    +0.000 C 
BRANCH  17  18
ATOM     18  C   UNL     1       0.498   1.421   4.818  0.00  0.00    +0.000 C 
BRANCH  18  20
ATOM     19  C   UNL     1      -1.799   1.308   5.922  0.00  0.00    +0.000 C 
ATOM     20  C   UNL     1      -0.506   0.641   5.610  0.00  0.00    +0.000 C 
ENDBRANCH  18  20
ENDBRANCH  17  18
ENDBRANCH  14  17
ENDBRANCH  13  14
ENDBRANCH   1  13
TORSDOF 9
ENDMDL
MODEL 9
REMARK VINA RESULT:      -4.8      1.122      2.540
REMARK  Name = shuffle_control_esm0_ligand
REMARK  12 active torsions:
REMARK  status: ('A' for Active; 'I' for Inactive)
REMARK    1  A    between atoms: C_1  and  C_2
REMARK    2  A    between atoms: C_2  and  C_3
REMARK    3  A    between atoms: C_3  and  C_4
REMARK    4  A    between atoms: C_4  and  C_5
REMARK    5  A    between atoms: C_5  and  C_6
REMARK    6  A    between atoms: C_5  and  O_8
REMARK    7  A    between atoms: C_6  and  C_7
REMARK    8  A    between atoms: O_8  and  C_9
REMARK    9  A    between atoms: C_9  and  C_11
REMARK   10  A    between atoms: C_12  and  C_13
REMARK   11  A    between atoms: C_16  and  O_17
REMARK   12  A    between atoms: O_17  and  C_18
REMARK                            x       y       z     vdW  Elec       q    Type
REMARK                         _______ _______ _______ _____ _____    ______ ____
ROOT
ATOM      1  C   UNL     1       1.329   3.167   4.216  0.00  0.00    +0.000 C 
ATOM      2  O   UNL     1       1.070   4.327   4.250  0.00  0.00    +0.000 OA
ENDROOT
BRANCH   1   3
ATOM      3  C   UNL     1       2.374   2.571   3.330  0.00  0.00    +0.000 C 
ATOM      4  C   UNL     1       3.508   3.207   3.094  0.00  0.00    +0.000 C 
BRANCH   4   5
ATOM      5  C   UNL     1       4.534   2.729   2.121  0.00  0.00    +0.000 A 
ATOM      6  C   UNL     1       5.190   3.657   1.353  0.00  0.00    +0.000 A 
ATOM      7  C   UNL     1       6.132   3.266   0.413  0.00  0.00    +0.000 A 
ATOM      8  C   UNL     1       6.435   1.928   0.241  0.00  0.00    +0.000 A 
ATOM      9  C   UNL     1       5.775   0.984   1.028  0.00  0.00    +0.000 A 
ATOM     10  C   UNL     1       4.830   1.386   1.976  0.00  0.00    +0.000 A 
BRANCH   8  11
ATOM     11  O   UNL     1       7.336   1.506  -0.671  0.00  0.00    +0.000 OA
ATOM     12  C   UNL     1       7.650   0.118  -0.758  0.00  0.00    +0.000 C 
ENDBRANCH   8  11
ENDBRANCH   4   5
ENDBRANCH   1   3
BRANCH   1  13
ATOM     13  O   UNL     1       0.675   2.266   4.992  0.00  0.00    +0.000 OA
BRANCH  13  14
ATOM     14  C   UNL     1      -0.744   2.144   4.993  0.00  0.00    +0.000 C 
BRANCH  14  15
ATOM     15  C   UNL     1      -1.253   1.282   6.135  0.00  0.00    +0.000 C 
ATOM     16  C   UNL     1      -2.744   1.164   6.269  0.00  0.00    +0.000 C 
ENDBRANCH  14  15
BRANCH  14  17
ATOM     17  C   UNL     1      -1.151   1.492   3.712  0.00  0.00    +0.000 C 
BRANCH  17  18
ATOM     18  C   UNL     1      -1.900   2.376   2.775  0.00  0.00    +0.000 C 
BRANCH  18  20
ATOM     19  C   UNL     1      -0.783   4.069   1.228  0.00  0.00    +0.000 C 
ATOM     20  C   UNL     1      -1.258   2.677   1.455  0.00  0.00    +0.000 C 
ENDBRANCH  18  20
ENDBRANCH  17  18
ENDBRANCH  14  17
ENDBRANCH  13  14
ENDBRANCH   1  13
TORSDOF 9
ENDMDL
