REMARK  Name = ox2_orig_f8_ligand
REMARK  5 active torsions:
REMARK  status: ('A' for Active; 'I' for Inactive)
REMARK    1  A    between atoms: C_1  and  O_2
REMARK    2  A    between atoms: O_2  and  C_3
REMARK    3  A    between atoms: C_6  and  C_7
REMARK    4  A    between atoms: C_7  and  C_9
REMARK    5  A    between atoms: C_15  and  O_16
REMARK                            x       y       z     vdW  Elec       q    Type
REMARK                         _______ _______ _______ _____ _____    ______ ____
ROOT
ATOM      1  C   UNL     1      -2.280  -2.340  -1.774  0.00  0.00    +0.000 A 
ATOM      2  C   UNL     1      -2.081  -3.400  -2.634  0.00  0.00    +0.000 A 
ATOM      3  C   UNL     1      -1.236  -3.274  -3.712  0.00  0.00    +0.000 A 
ATOM      4  C   UNL     1      -0.594  -2.082  -3.945  0.00  0.00    +0.000 A 
ATOM      5  C   UNL     1      -0.776  -1.010  -3.074  0.00  0.00    +0.000 A 
ATOM      6  C   UNL     1      -1.622  -1.150  -1.997  0.00  0.00    +0.000 A 
ENDROOT
BRANCH   1   8
ATOM      7  C   UNL     1      -3.365  -1.506   0.181  0.00  0.00    +0.000 C 
ATOM      8  O   UNL     1      -3.132  -2.538  -0.733  0.00  0.00    +0.000 OA
ENDBRANCH   1   8
BRANCH   4   9
ATOM      9  C   UNL     1       0.304  -1.975  -5.100  0.00  0.00    +0.000 C 
ATOM     10  O   UNL     1       1.280  -1.481  -4.917  0.00  0.00    +0.000 OA
BRANCH   9  11
ATOM     11  C   UNL     1       0.168  -2.552  -6.414  0.00  0.00    +0.000 A 
ATOM     12  C   UNL     1      -1.061  -2.639  -7.006  0.00  0.00    +0.000 A 
ATOM     13  C   UNL     1      -1.190  -3.181  -8.266  0.00  0.00    +0.000 A 
ATOM     14  C   UNL     1      -0.086  -3.656  -8.934  0.00  0.00    +0.000 A 
ATOM     15  C   UNL     1       1.158  -3.552  -8.350  0.00  0.00    +0.000 A 
ATOM     16  C   UNL     1       1.296  -2.989  -7.090  0.00  0.00    +0.000 A 
ENDBRANCH   9  11
ENDBRANCH   4   9
BRANCH   5  17
ATOM     17  O   UNL     1      -0.126   0.145  -3.287  0.00  0.00    +0.000 OA
ATOM     18  H   UNL     1      -0.255   0.907  -2.668  0.00  0.00    +0.000 HD
ENDBRANCH   5  17
TORSDOF 4
