MODEL 1
REMARK VINA RESULT:      -5.0      0.000      0.000
REMARK  Name = ox2_orig_f8_ligand
REMARK  5 active torsions:
REMARK  status: ('A' for Active; 'I' for Inactive)
REMARK    1  A    between atoms: C_1  and  O_2
REMARK    2  A    between atoms: O_2  and  C_3
REMARK    3  A    between atoms: C_6  and  C_7
REMARK    4  A    between atoms: C_7  and  C_9
REMARK    5  A    between atoms: C_15  and  O_16
REMARK                            x       y       z     vdW  Elec       q    Type
REMARK                         _______ _______ _______ _____ _____    ______ ____
ROOT
ATOM      1  C   UNL     1       8.368  -6.767  -2.166  0.00  0.00    +0.000 A 
ATOM      2  C   UNL     1       8.367  -7.385  -3.399  0.00  0.00    +0.000 A 
ATOM      3  C   UNL     1       7.183  -7.762  -3.988  0.00  0.00    +0.000 A 
ATOM      4  C   UNL     1       5.992  -7.536  -3.342  0.00  0.00    +0.000 A 
ATOM      5  C   UNL     1       5.981  -6.899  -2.103  0.00  0.00    +0.000 A 
ATOM      6  C   UNL     1       7.173  -6.523  -1.525  0.00  0.00    +0.000 A 
ENDROOT
BRANCH   1   8
ATOM      7  C   UNL     1       9.680  -6.084  -0.293  0.00  0.00    +0.000 C 
ATOM      8  O   UNL     1       9.577  -6.425  -1.645  0.00  0.00    +0.000 OA
ENDBRANCH   1   8
BRANCH   4   9
ATOM      9  C   UNL     1       4.743  -7.946  -3.993  0.00  0.00    +0.000 C 
ATOM     10  O   UNL     1       4.254  -8.855  -3.587  0.00  0.00    +0.000 OA
BRANCH   9  11
ATOM     11  C   UNL     1       3.971  -7.256  -4.996  0.00  0.00    +0.000 A 
ATOM     12  C   UNL     1       3.610  -7.894  -6.150  0.00  0.00    +0.000 A 
ATOM     13  C   UNL     1       2.864  -7.237  -7.104  0.00  0.00    +0.000 A 
ATOM     14  C   UNL     1       2.489  -5.928  -6.913  0.00  0.00    +0.000 A 
ATOM     15  C   UNL     1       2.834  -5.287  -5.743  0.00  0.00    +0.000 A 
ATOM     16  C   UNL     1       3.568  -5.949  -4.770  0.00  0.00    +0.000 A 
ENDBRANCH   9  11
ENDBRANCH   4   9
BRANCH   5  17
ATOM     17  O   UNL     1       4.815  -6.653  -1.485  0.00  0.00    +0.000 OA
ATOM     18  H   UNL     1       4.779  -6.601  -0.497  0.00  0.00    +0.000 HD
ENDBRANCH   5  17
TORSDOF 4
ENDMDL
MODEL 2
REMARK VINA RESULT:      -4.7      1.694      2.161
REMARK  Name = ox2_orig_f8_ligand
REMARK  5 active torsions:
REMARK  status: ('A' for Active; 'I' for Inactive)
REMARK    1  A    between atoms: C_1  and  O_2
REMARK    2  A    between atoms: O_2  and  C_3
REMARK    3  A    between atoms: C_6  and  C_7
REMARK    4  A    between atoms: C_7  and  C_9
REMARK    5  A    between atoms: C_15  and  O_16
REMARK                            x       y       z     vdW  Elec       q    Type
REMARK                         _______ _______ _______ _____ _____    ______ ____
ROOT
ATOM      1  C   UNL     1       6.499  -8.556  -1.510  0.00  0.00    +0.000 A 
ATOM      2  C   UNL     1       6.991  -7.763  -2.526  0.00  0.00    +0.000 A 
ATOM      3  C   UNL     1       6.336  -7.692  -3.734  0.00  0.00    +0.000 A 
ATOM      4  C   UNL     1       5.192  -8.424  -3.938  0.00  0.00    +0.000 A 
ATOM      5  C   UNL     1       4.678  -9.216  -2.914  0.00  0.00    +0.000 A 
ATOM      6  C   UNL     1       5.341  -9.276  -1.709  0.00  0.00    +0.000 A 
ENDROOT
BRANCH   1   8
ATOM      7  C   UNL     1       6.983  -7.590   0.618  0.00  0.00    +0.000 C 
ATOM      8  O   UNL     1       7.202  -8.578  -0.346  0.00  0.00    +0.000 OA
ENDBRANCH   1   8
BRANCH   4   9
ATOM      9  C   UNL     1       4.512  -8.328  -5.234  0.00  0.00    +0.000 C 
ATOM     10  O   UNL     1       4.514  -9.246  -5.858  0.00  0.00    +0.000 OA
BRANCH   9  11
ATOM     11  C   UNL     1       3.706  -7.255  -5.761  0.00  0.00    +0.000 A 
ATOM     12  C   UNL     1       3.092  -7.385  -6.976  0.00  0.00    +0.000 A 
ATOM     13  C   UNL     1       2.314  -6.364  -7.475  0.00  0.00    +0.000 A 
ATOM     14  C   UNL     1       2.160  -5.197  -6.764  0.00  0.00    +0.000 A 
ATOM     15  C   UNL     1       2.759  -5.069  -5.530  0.00  0.00    +0.000 A 
ATOM     16  C   UNL     1       3.528  -6.102  -5.014  0.00  0.00    +0.000 A 
ENDBRANCH   9  11
ENDBRANCH   4   9
BRANCH   5  17
ATOM     17  O   UNL     1       3.545  -9.909  -3.105  0.00  0.00    +0.000 OA
ATOM     18  H   UNL     1       3.419 -10.785  -2.662  0.00  0.00    +0.000 HD
ENDBRANCH   5  17
TORSDOF 4
ENDMDL
MODEL 3
REMARK VINA RESULT:      -4.7      1.809      6.164
REMARK  Name = ox2_orig_f8_ligand
REMARK  5 active torsions:
REMARK  status: ('A' for Active; 'I' for Inactive)
REMARK    1  A    between atoms: C_1  and  O_2
REMARK    2  A    between atoms: O_2  and  C_3
REMARK    3  A    between atoms: C_6  and  C_7
REMARK    4  A    between atoms: C_7  and  C_9
REMARK    5  A    between atoms: C_15  and  O_16
REMARK                            x       y       z     vdW  Elec       q    Type
REMARK                         _______ _______ _______ _____ _____    ______ ____
ROOT
ATOM      1  C   UNL     1       2.424  -5.592  -6.776  0.00  0.00    +0.000 A 
ATOM      2  C   UNL     1       2.820  -5.052  -5.570  0.00  0.00    +0.000 A 
ATOM      3  C   UNL     1       3.575  -5.792  -4.689  0.00  0.00    +0.000 A 
ATOM      4  C   UNL     1       3.927  -7.082  -5.004  0.00  0.00    +0.000 A 
ATOM      5  C   UNL     1       3.545  -7.632  -6.225  0.00  0.00    +0.000 A 
ATOM      6  C   UNL     1       2.793  -6.879  -7.099  0.00  0.00    +0.000 A 
ENDROOT
BRANCH   1   8
ATOM      7  C   UNL     1       0.282  -4.851  -7.522  0.00  0.00    +0.000 C 
ATOM      8  O   UNL     1       1.677  -4.802  -7.593  0.00  0.00    +0.000 OA
ENDBRANCH   1   8
BRANCH   4   9
ATOM      9  C   UNL     1       4.735  -7.849  -4.048  0.00  0.00    +0.000 C 
ATOM     10  O   UNL     1       4.376  -8.872  -3.815  0.00  0.00    +0.000 OA
BRANCH   9  11
ATOM     11  C   UNL     1       6.016  -7.523  -3.474  0.00  0.00    +0.000 A 
ATOM     12  C   UNL     1       7.170  -7.915  -4.094  0.00  0.00    +0.000 A 
ATOM     13  C   UNL     1       8.395  -7.595  -3.552  0.00  0.00    +0.000 A 
ATOM     14  C   UNL     1       8.470  -6.894  -2.371  0.00  0.00    +0.000 A 
ATOM     15  C   UNL     1       7.310  -6.480  -1.753  0.00  0.00    +0.000 A 
ATOM     16  C   UNL     1       6.075  -6.781  -2.305  0.00  0.00    +0.000 A 
ENDBRANCH   9  11
ENDBRANCH   4   9
BRANCH   5  17
ATOM     17  O   UNL     1       3.914  -8.882  -6.543  0.00  0.00    +0.000 OA
ATOM     18  H   UNL     1       3.564  -9.649  -6.023  0.00  0.00    +0.000 HD
ENDBRANCH   5  17
TORSDOF 4
ENDMDL
MODEL 4
REMARK VINA RESULT:      -4.7      4.027      8.011
REMARK  Name = ox2_orig_f8_ligand
REMARK  5 active torsions:
REMARK  status: ('A' for Active; 'I' for Inactive)
REMARK    1  A    between atoms: C_1  and  O_2
REMARK    2  A    between atoms: O_2  and  C_3
REMARK    3  A    between atoms: C_6  and  C_7
REMARK    4  A    between atoms: C_7  and  C_9
REMARK    5  A    between atoms: C_15  and  O_16
REMARK                            x       y       z     vdW  Elec       q    Type
REMARK                         _______ _______ _______ _____ _____    ______ ____
ROOT
ATOM      1  C   UNL     1      -1.165  -4.384  -8.120  0.00  0.00    +0.000 A 
ATOM      2  C   UNL     1      -1.137  -5.409  -7.198  0.00  0.00    +0.000 A 
ATOM      3  C   UNL     1       0.040  -5.756  -6.575  0.00  0.00    +0.000 A 
ATOM      4  C   UNL     1       1.200  -5.087  -6.881  0.00  0.00    +0.000 A 
ATOM      5  C   UNL     1       1.181  -4.040  -7.800  0.00  0.00    +0.000 A 
ATOM      6  C   UNL     1      -0.004  -3.701  -8.413  0.00  0.00    +0.000 A 
ENDROOT
BRANCH   1   8
ATOM      7  C   UNL     1      -2.479  -3.007  -9.559  0.00  0.00    +0.000 C 
ATOM      8  O   UNL     1      -2.363  -4.101  -8.697  0.00  0.00    +0.000 OA
ENDBRANCH   1   8
BRANCH   4   9
ATOM      9  C   UNL     1       2.441  -5.474  -6.201  0.00  0.00    +0.000 C 
ATOM     10  O   UNL     1       2.864  -4.731  -5.495  0.00  0.00    +0.000 OA
BRANCH   9  11
ATOM     11  C   UNL     1       3.119  -6.746  -6.201  0.00  0.00    +0.000 A 
ATOM     12  C   UNL     1       3.000  -7.592  -7.268  0.00  0.00    +0.000 A 
ATOM     13  C   UNL     1       3.656  -8.804  -7.273  0.00  0.00    +0.000 A 
ATOM     14  C   UNL     1       4.425  -9.181  -6.197  0.00  0.00    +0.000 A 
ATOM     15  C   UNL     1       4.565  -8.323  -5.128  0.00  0.00    +0.000 A 
ATOM     16  C   UNL     1       3.923  -7.094  -5.127  0.00  0.00    +0.000 A 
ENDBRANCH   9  11
ENDBRANCH   4   9
BRANCH   5  17
ATOM     17  O   UNL     1       2.310  -3.369  -8.076  0.00  0.00    +0.000 OA
ATOM     18  H   UNL     1       2.575  -2.595  -7.519  0.00  0.00    +0.000 HD
ENDBRANCH   5  17
TORSDOF 4
ENDMDL
MODEL 5
REMARK VINA RESULT:      -4.6      3.910      7.972
REMARK  Name = ox2_orig_f8_ligand
REMARK  5 active torsions:
REMARK  status: ('A' for Active; 'I' for Inactive)
REMARK    1  A    between atoms: C_1  and  O_2
REMARK    2  A    between atoms: O_2  and  C_3
REMARK    3  A    between atoms: C_6  and  C_7
REMARK    4  A    between atoms: C_7  and  C_9
REMARK    5  A    between atoms: C_15  and  O_16
REMARK                            x       y       z     vdW  Elec       q    Type
REMARK                         _______ _______ _______ _____ _____    ______ ____
ROOT
ATOM      1  C   UNL     1      -0.463  -4.138  -9.038  0.00  0.00    +0.000 A 
ATOM      2  C   UNL     1       0.879  -3.902  -9.251  0.00  0.00    +0.000 A 
ATOM      3  C   UNL     1       1.815  -4.328  -8.337  0.00  0.00    +0.000 A 
ATOM      4  C   UNL     1       1.414  -4.981  -7.198  0.00  0.00    +0.000 A 
ATOM      5  C   UNL     1       0.062  -5.238  -6.980  0.00  0.00    +0.000 A 
ATOM      6  C   UNL     1      -0.865  -4.810  -7.904  0.00  0.00    +0.000 A 
ENDROOT
BRANCH   1   8
ATOM      7  C   UNL     1      -2.200  -2.632  -9.681  0.00  0.00    +0.000 C 
ATOM      8  O   UNL     1      -1.330  -3.685  -9.983  0.00  0.00    +0.000 OA
ENDBRANCH   1   8
BRANCH   4   9
ATOM      9  C   UNL     1       2.433  -5.427  -6.241  0.00  0.00    +0.000 C 
ATOM     10  O   UNL     1       2.620  -4.758  -5.377  0.00  0.00    +0.000 OA
BRANCH   9  11
ATOM     11  C   UNL     1       3.129  -6.688  -6.176  0.00  0.00    +0.000 A 
ATOM     12  C   UNL     1       3.906  -6.993  -5.093  0.00  0.00    +0.000 A 
ATOM     13  C   UNL     1       4.563  -8.202  -5.026  0.00  0.00    +0.000 A 
ATOM     14  C   UNL     1       4.459  -9.107  -6.056  0.00  0.00    +0.000 A 
ATOM     15  C   UNL     1       3.661  -8.813  -7.141  0.00  0.00    +0.000 A 
ATOM     16  C   UNL     1       2.981  -7.606  -7.204  0.00  0.00    +0.000 A 
ENDBRANCH   9  11
ENDBRANCH   4   9
BRANCH   5  17
ATOM     17  O   UNL     1      -0.326  -5.902  -5.880  0.00  0.00    +0.000 OA
ATOM     18  H   UNL     1      -1.093  -5.572  -5.347  0.00  0.00    +0.000 HD
ENDBRANCH   5  17
TORSDOF 4
ENDMDL
MODEL 6
REMARK VINA RESULT:      -4.4      3.188      5.423
REMARK  Name = ox2_orig_f8_ligand
REMARK  5 active torsions:
REMARK  status: ('A' for Active; 'I' for Inactive)
REMARK    1  A    between atoms: C_1  and  O_2
REMARK    2  A    between atoms: O_2  and  C_3
REMARK    3  A    between atoms: C_6  and  C_7
REMARK    4  A    between atoms: C_7  and  C_9
REMARK    5  A    between atoms: C_15  and  O_16
REMARK                            x       y       z     vdW  Elec       q    Type
REMARK                         _______ _______ _______ _____ _____    ______ ____
ROOT
ATOM      1  C   UNL     1       4.118  -8.005  -5.644  0.00  0.00    +0.000 A 
ATOM      2  C   UNL     1       3.483  -8.172  -6.857  0.00  0.00    +0.000 A 
ATOM      3  C   UNL     1       2.645  -7.197  -7.345  0.00  0.00    +0.000 A 
ATOM      4  C   UNL     1       2.425  -6.054  -6.616  0.00  0.00    +0.000 A 
ATOM      5  C   UNL     1       3.072  -5.868  -5.397  0.00  0.00    +0.000 A 
ATOM      6  C   UNL     1       3.911  -6.851  -4.921  0.00  0.00    +0.000 A 
ENDROOT
BRANCH   1   8
ATOM      7  C   UNL     1       5.907  -8.762  -4.258  0.00  0.00    +0.000 C 
ATOM      8  O   UNL     1       4.929  -9.013  -5.225  0.00  0.00    +0.000 OA
ENDBRANCH   1   8
BRANCH   4   9
ATOM      9  C   UNL     1       1.528  -5.028  -7.161  0.00  0.00    +0.000 C 
ATOM     10  O   UNL     1       2.017  -4.142  -7.614  0.00  0.00    +0.000 OA
BRANCH   9  11
ATOM     11  C   UNL     1       0.097  -5.068  -7.329  0.00  0.00    +0.000 A 
ATOM     12  C   UNL     1      -0.664  -5.912  -6.569  0.00  0.00    +0.000 A 
ATOM     13  C   UNL     1      -2.033  -5.943  -6.723  0.00  0.00    +0.000 A 
ATOM     14  C   UNL     1      -2.646  -5.138  -7.654  0.00  0.00    +0.000 A 
ATOM     15  C   UNL     1      -1.885  -4.271  -8.408  0.00  0.00    +0.000 A 
ATOM     16  C   UNL     1      -0.509  -4.221  -8.243  0.00  0.00    +0.000 A 
ENDBRANCH   9  11
ENDBRANCH   4   9
BRANCH   5  17
ATOM     17  O   UNL     1       2.878  -4.738  -4.699  0.00  0.00    +0.000 OA
ATOM     18  H   UNL     1       3.556  -4.017  -4.726  0.00  0.00    +0.000 HD
ENDBRANCH   5  17
TORSDOF 4
ENDMDL
MODEL 7
REMARK VINA RESULT:      -4.4     13.155     15.237
REMARK  Name = ox2_orig_f8_ligand
REMARK  5 active torsions:
REMARK  status: ('A' for Active; 'I' for Inactive)
REMARK    1  A    between atoms: C_1  and  O_2
REMARK    2  A    between atoms: O_2  and  C_3
REMARK    3  A    between atoms: C_6  and  C_7
REMARK    4  A    between atoms: C_7  and  C_9
REMARK    5  A    between atoms: C_15  and  O_16
REMARK                            x       y       z     vdW  Elec       q    Type
REMARK                         _______ _______ _______ _____ _____    ______ ____
ROOT
ATOM      1  C   UNL     1      -6.729  -7.591  -0.476  0.00  0.00    +0.000 A 
ATOM      2  C   UNL     1      -7.952  -7.569   0.162  0.00  0.00    +0.000 A 
ATOM      3  C   UNL     1      -8.821  -6.520  -0.032  0.00  0.00    +0.000 A 
ATOM      4  C   UNL     1      -8.467  -5.480  -0.857  0.00  0.00    +0.000 A 
ATOM      5  C   UNL     1      -7.241  -5.500  -1.519  0.00  0.00    +0.000 A 
ATOM      6  C   UNL     1      -6.382  -6.557  -1.317  0.00  0.00    +0.000 A 
ENDROOT
BRANCH   1   8
ATOM      7  C   UNL     1      -6.410  -9.955  -0.413  0.00  0.00    +0.000 C 
ATOM      8  O   UNL     1      -5.922  -8.658  -0.232  0.00  0.00    +0.000 OA
ENDBRANCH   1   8
BRANCH   4   9
ATOM      9  C   UNL     1      -9.414  -4.376  -1.050  0.00  0.00    +0.000 C 
ATOM     10  O   UNL     1     -10.031  -4.416  -1.971  0.00  0.00    +0.000 OA
BRANCH   9  11
ATOM     11  C   UNL     1      -9.769  -3.314  -0.142  0.00  0.00    +0.000 A 
ATOM     12  C   UNL     1      -9.426  -2.021  -0.424  0.00  0.00    +0.000 A 
ATOM     13  C   UNL     1      -9.774  -1.005   0.438  0.00  0.00    +0.000 A 
ATOM     14  C   UNL     1     -10.456  -1.282   1.600  0.00  0.00    +0.000 A 
ATOM     15  C   UNL     1     -10.822  -2.582   1.878  0.00  0.00    +0.000 A 
ATOM     16  C   UNL     1     -10.491  -3.606   1.004  0.00  0.00    +0.000 A 
ENDBRANCH   9  11
ENDBRANCH   4   9
BRANCH   5  17
ATOM     17  O   UNL     1      -6.909  -4.497  -2.346  0.00  0.00    +0.000 OA
ATOM     18  H   UNL     1      -7.294  -3.595  -2.210  0.00  0.00    +0.000 HD
ENDBRANCH   5  17
TORSDOF 4
ENDMDL
MODEL 8
REMARK VINA RESULT:      -4.4      1.365      2.009
REMARK  Name = ox2_orig_f8_ligand
REMARK  5 active torsions:
REMARK  status: ('A' for Active; 'I' for Inactive)
REMARK    1  A    between atoms: C_1  and  O_2
REMARK    2  A    between atoms: O_2  and  C_3
REMARK    3  A    between atoms: C_6  and  C_7
REMARK    4  A    between atoms: C_7  and  C_9
REMARK    5  A    between atoms: C_15  and  O_16
REMARK                            x       y       z     vdW  Elec       q    Type
REMARK                         _______ _______ _______ _____ _____    ______ ____
ROOT
ATOM      1  C   UNL     1       7.782  -7.510  -2.796  0.00  0.00    +0.000 A 
ATOM      2  C   UNL     1       6.662  -6.827  -2.370  0.00  0.00    +0.000 A 
ATOM      3  C   UNL     1       5.452  -7.010  -2.999  0.00  0.00    +0.000 A 
ATOM      4  C   UNL     1       5.357  -7.868  -4.068  0.00  0.00    +0.000 A 
ATOM      5  C   UNL     1       6.479  -8.574  -4.497  0.00  0.00    +0.000 A 
ATOM      6  C   UNL     1       7.683  -8.385  -3.857  0.00  0.00    +0.000 A 
ENDROOT
BRANCH   1   8
ATOM      7  C   UNL     1       9.804  -6.265  -2.565  0.00  0.00    +0.000 C 
ATOM      8  O   UNL     1       8.943  -7.275  -2.128  0.00  0.00    +0.000 OA
ENDBRANCH   1   8
BRANCH   4   9
ATOM      9  C   UNL     1       4.055  -8.047  -4.719  0.00  0.00    +0.000 C 
ATOM     10  O   UNL     1       3.437  -8.892  -4.353  0.00  0.00    +0.000 OA
BRANCH   9  11
ATOM     11  C   UNL     1       3.389  -7.192  -5.670  0.00  0.00    +0.000 A 
ATOM     12  C   UNL     1       3.029  -7.674  -6.897  0.00  0.00    +0.000 A 
ATOM     13  C   UNL     1       2.383  -6.861  -7.802  0.00  0.00    +0.000 A 
ATOM     14  C   UNL     1       2.109  -5.551  -7.487  0.00  0.00    +0.000 A 
ATOM     15  C   UNL     1       2.452  -5.066  -6.243  0.00  0.00    +0.000 A 
ATOM     16  C   UNL     1       3.084  -5.886  -5.321  0.00  0.00    +0.000 A 
ENDBRANCH   9  11
ENDBRANCH   4   9
BRANCH   5  17
ATOM     17  O   UNL     1       6.378  -9.433  -5.523  0.00  0.00    +0.000 OA
ATOM     18  H   UNL     1       5.562  -9.441  -6.084  0.00  0.00    +0.000 HD
ENDBRANCH   5  17
TORSDOF 4
ENDMDL
MODEL 9
REMARK VINA RESULT:      -4.4      2.173      5.773
REMARK  Name = ox2_orig_f8_ligand
REMARK  5 active torsions:
REMARK  status: ('A' for Active; 'I' for Inactive)
REMARK    1  A    between atoms: C_1  and  O_2
REMARK    2  A    between atoms: O_2  and  C_3
REMARK    3  A    between atoms: C_6  and  C_7
REMARK    4  A    between atoms: C_7  and  C_9
REMARK    5  A    between atoms: C_15  and  O_16
REMARK                            x       y       z     vdW  Elec       q    Type
REMARK                         _______ _______ _______ _____ _____    ______ ____
ROOT
ATOM      1  C   UNL     1       2.592  -5.587  -6.213  0.00  0.00    +0.000 A 
ATOM      2  C   UNL     1       2.806  -6.840  -6.749  0.00  0.00    +0.000 A 
ATOM      3  C   UNL     1       3.628  -7.740  -6.111  0.00  0.00    +0.000 A 
ATOM      4  C   UNL     1       4.253  -7.387  -4.939  0.00  0.00    +0.000 A 
ATOM      5  C   UNL     1       4.032  -6.130  -4.382  0.00  0.00    +0.000 A 
ATOM      6  C   UNL     1       3.205  -5.240  -5.028  0.00  0.00    +0.000 A 
ENDROOT
BRANCH   1   8
ATOM      7  C   UNL     1       1.729  -4.809  -8.298  0.00  0.00    +0.000 C 
ATOM      8  O   UNL     1       1.770  -4.751  -6.901  0.00  0.00    +0.000 OA
ENDBRANCH   1   8
BRANCH   4   9
ATOM      9  C   UNL     1       5.122  -8.366  -4.278  0.00  0.00    +0.000 C 
ATOM     10  O   UNL     1       4.642  -9.010  -3.513  0.00  0.00    +0.000 OA
BRANCH   9  11
ATOM     11  C   UNL     1       6.487  -8.722  -4.580  0.00  0.00    +0.000 A 
ATOM     12  C   UNL     1       6.759  -9.689  -5.507  0.00  0.00    +0.000 A 
ATOM     13  C   UNL     1       8.063 -10.021  -5.803  0.00  0.00    +0.000 A 
ATOM     14  C   UNL     1       9.103  -9.396  -5.157  0.00  0.00    +0.000 A 
ATOM     15  C   UNL     1       8.834  -8.406  -4.237  0.00  0.00    +0.000 A 
ATOM     16  C   UNL     1       7.524  -8.053  -3.949  0.00  0.00    +0.000 A 
ENDBRANCH   9  11
ENDBRANCH   4   9
BRANCH   5  17
ATOM     17  O   UNL     1       4.621  -5.797  -3.222  0.00  0.00    +0.000 OA
ATOM     18  H   UNL     1       5.429  -6.284  -2.920  0.00  0.00    +0.000 HD
ENDBRANCH   5  17
TORSDOF 4
ENDMDL
