REMARK  Name = ox1_orig_f12_ligand
REMARK  5 active torsions:
REMARK  status: ('A' for Active; 'I' for Inactive)
REMARK    1  A    between atoms: C_1  and  O_2
REMARK    2  A    between atoms: O_2  and  C_3
REMARK    3  A    between atoms: C_6  and  C_7
REMARK    4  A    between atoms: C_7  and  C_9
REMARK    5  A    between atoms: C_15  and  O_16
REMARK                            x       y       z     vdW  Elec       q    Type
REMARK                         _______ _______ _______ _____ _____    ______ ____
ROOT
ATOM      1  C   UNL     1       1.881   0.012  -2.864  0.00  0.00    +0.000 A 
ATOM      2  C   UNL     1       0.783  -0.577  -2.246  0.00  0.00    +0.000 A 
ATOM      3  C   UNL     1      -0.087   0.200  -1.494  0.00  0.00    +0.000 A 
ATOM      4  C   UNL     1       0.134   1.566  -1.341  0.00  0.00    +0.000 A 
ATOM      5  C   UNL     1       1.230   2.150  -1.967  0.00  0.00    +0.000 A 
ATOM      6  C   UNL     1       2.091   1.373  -2.725  0.00  0.00    +0.000 A 
ENDROOT
BRANCH   1   8
ATOM      7  C   UNL     1       3.799  -0.224  -4.295  0.00  0.00    +0.000 C 
ATOM      8  O   UNL     1       2.716  -0.791  -3.594  0.00  0.00    +0.000 OA
ENDBRANCH   1   8
BRANCH   4   9
ATOM      9  C   UNL     1      -0.798   2.429  -0.533  0.00  0.00    +0.000 C 
ATOM     10  O   UNL     1      -0.617   3.629  -0.547  0.00  0.00    +0.000 OA
BRANCH   9  11
ATOM     11  C   UNL     1      -1.939   1.887   0.240  0.00  0.00    +0.000 A 
ATOM     12  C   UNL     1      -1.815   0.745   1.021  0.00  0.00    +0.000 A 
ATOM     13  C   UNL     1      -2.892   0.256   1.725  0.00  0.00    +0.000 A 
ATOM     14  C   UNL     1      -4.116   0.903   1.662  0.00  0.00    +0.000 A 
ATOM     15  C   UNL     1      -4.252   2.056   0.901  0.00  0.00    +0.000 A 
ATOM     16  C   UNL     1      -3.163   2.569   0.201  0.00  0.00    +0.000 A 
ENDBRANCH   9  11
ENDBRANCH   4   9
BRANCH   5  17
ATOM     17  O   UNL     1       1.433   3.484  -1.826  0.00  0.00    +0.000 OA
ATOM     18  H   UNL     1       2.208   3.916  -2.265  0.00  0.00    +0.000 HD
ENDBRANCH   5  17
TORSDOF 4
