REMARK  Name = /Users/cafierom/python_mac/peptidebuilder/runs/oxybenzone/dock/ox1_orig_f12/ox1_orig_f12_protein.pdb
REMARK                            x       y       z     vdW  Elec       q    Type
REMARK                         _______ _______ _______ _____ _____    ______ ____
ATOM      1 N    PHE A   1      -5.101   1.837   5.341  0.00  0.00    +0.000 NA
ATOM      2 CA   PHE A   1      -4.231   1.743   6.505  0.00  0.00    +0.000 C 
ATOM      3 C    PHE A   1      -3.504   3.056   6.805  0.00  0.00    +0.000 C 
ATOM      4 O    PHE A   1      -2.409   3.056   7.360  0.00  0.00    +0.000 OA
ATOM      5 CB   PHE A   1      -3.225   0.612   6.325  0.00  0.00    +0.000 C 
ATOM      6 CG   PHE A   1      -3.888  -0.720   6.086  0.00  0.00    +0.000 A 
ATOM      7 CD1  PHE A   1      -4.399  -1.445   7.149  0.00  0.00    +0.000 A 
ATOM      8 CD2  PHE A   1      -4.022  -1.217   4.808  0.00  0.00    +0.000 A 
ATOM      9 CE1  PHE A   1      -5.023  -2.662   6.936  0.00  0.00    +0.000 A 
ATOM     10 CE2  PHE A   1      -4.648  -2.436   4.581  0.00  0.00    +0.000 A 
ATOM     11 CZ   PHE A   1      -5.150  -3.159   5.651  0.00  0.00    +0.000 A 
ATOM     12 N    GLY A   2      -4.072   4.171   6.428  0.00  0.00    +0.000 N 
ATOM     13 CA   GLY A   2      -3.532   5.482   6.743  0.00  0.00    +0.000 C 
ATOM     14 C    GLY A   2      -2.392   5.934   5.856  0.00  0.00    +0.000 C 
ATOM     15 O    GLY A   2      -1.590   6.772   6.268  0.00  0.00    +0.000 OA
ATOM     16 N    ARG A   3      -2.320   5.394   4.641  0.00  0.00    +0.000 N 
ATOM     17 CA   ARG A   3      -1.270   5.771   3.711  0.00  0.00    +0.000 C 
ATOM     18 C    ARG A   3      -1.860   6.526   2.529  0.00  0.00    +0.000 C 
ATOM     19 O    ARG A   3      -2.880   6.135   1.976  0.00  0.00    +0.000 OA
ATOM     20 CB   ARG A   3      -0.513   4.541   3.207  0.00  0.00    +0.000 C 
ATOM     21 CG   ARG A   3       0.231   3.785   4.296  0.00  0.00    +0.000 C 
ATOM     22 CD   ARG A   3       0.909   2.554   3.716  0.00  0.00    +0.000 C 
ATOM     23 NE   ARG A   3       1.742   1.889   4.711  0.00  0.00    +0.000 NA
ATOM     24 CZ   ARG A   3       1.320   0.977   5.551  0.00  0.00    +0.000 C 
ATOM     25 NH1  ARG A   3       0.060   0.588   5.548  0.00  0.00    +0.000 N 
ATOM     26 NH2  ARG A   3       2.174   0.434   6.409  0.00  0.00    +0.000 N 
ATOM     27 N    GLY A   4      -1.172   7.609   2.149  0.00  0.00    +0.000 N 
ATOM     28 CA   GLY A   4      -1.571   8.345   0.961  0.00  0.00    +0.000 C 
ATOM     29 C    GLY A   4      -1.201   7.568  -0.287  0.00  0.00    +0.000 C 
ATOM     30 O    GLY A   4      -0.495   6.561  -0.234  0.00  0.00    +0.000 OA
ATOM     31 N    LYS A   5      -1.686   8.049  -1.435  0.00  0.00    +0.000 N 
ATOM     32 CA   LYS A   5      -1.386   7.394  -2.697  0.00  0.00    +0.000 C 
ATOM     33 C    LYS A   5       0.119   7.386  -2.932  0.00  0.00    +0.000 C 
ATOM     34 O    LYS A   5       0.766   8.428  -2.906  0.00  0.00    +0.000 OA
ATOM     35 CB   LYS A   5      -2.086   8.099  -3.851  0.00  0.00    +0.000 C 
ATOM     36 CG   LYS A   5      -3.566   7.773  -3.920  0.00  0.00    +0.000 C 
ATOM     37 CD   LYS A   5      -4.110   8.026  -5.310  0.00  0.00    +0.000 C 
ATOM     38 CE   LYS A   5      -5.333   7.173  -5.582  0.00  0.00    +0.000 C 
ATOM     39 NZ   LYS A   5      -5.490   6.914  -7.015  0.00  0.00    +0.000 NA
ATOM     40 N    GLY A   6       0.660   6.197  -3.139  0.00  0.00    +0.000 N 
ATOM     41 CA   GLY A   6       2.091   6.030  -3.332  0.00  0.00    +0.000 C 
ATOM     42 C    GLY A   6       2.894   5.998  -2.051  0.00  0.00    +0.000 C 
ATOM     43 O    GLY A   6       4.079   5.661  -2.074  0.00  0.00    +0.000 OA
ATOM     44 N    GLY A   7       2.266   6.307  -0.940  0.00  0.00    +0.000 N 
ATOM     45 CA   GLY A   7       2.997   6.409   0.313  0.00  0.00    +0.000 C 
ATOM     46 C    GLY A   7       3.307   5.093   0.994  0.00  0.00    +0.000 C 
ATOM     47 O    GLY A   7       4.118   5.063   1.924  0.00  0.00    +0.000 OA
ATOM     48 N    GLY A   8       2.690   4.023   0.555  0.00  0.00    +0.000 N 
ATOM     49 CA   GLY A   8       2.933   2.719   1.159  0.00  0.00    +0.000 C 
ATOM     50 C    GLY A   8       3.997   1.899   0.455  0.00  0.00    +0.000 C 
ATOM     51 O    GLY A   8       4.233   0.750   0.827  0.00  0.00    +0.000 OA
ATOM     52 N    ASP A   9       4.626   2.463  -0.552  0.00  0.00    +0.000 N 
ATOM     53 CA   ASP A   9       5.636   1.746  -1.318  0.00  0.00    +0.000 C 
ATOM     54 C    ASP A   9       6.791   1.333  -0.410  0.00  0.00    +0.000 C 
ATOM     55 O    ASP A   9       7.480   2.184   0.151  0.00  0.00    +0.000 OA
ATOM     56 CB   ASP A   9       6.141   2.616  -2.473  0.00  0.00    +0.000 C 
ATOM     57 CG   ASP A   9       7.021   1.859  -3.448  0.00  0.00    +0.000 C 
ATOM     58 OD1  ASP A   9       7.102   0.622  -3.351  0.00  0.00    +0.000 OA
ATOM     59 OD2  ASP A   9       7.612   2.521  -4.321  0.00  0.00    +0.000 OA
ATOM     60 N    GLY A  10       6.992   0.026  -0.269  0.00  0.00    +0.000 N 
ATOM     61 CA   GLY A  10       8.071  -0.504   0.543  0.00  0.00    +0.000 C 
ATOM     62 C    GLY A  10       7.852  -0.408   2.036  0.00  0.00    +0.000 C 
ATOM     63 O    GLY A  10       8.788  -0.627   2.807  0.00  0.00    +0.000 OA
ATOM     64 N    GLU A  11       6.630  -0.093   2.442  0.00  0.00    +0.000 N 
ATOM     65 CA   GLU A  11       6.340   0.065   3.856  0.00  0.00    +0.000 C 
ATOM     66 C    GLU A  11       5.142  -0.779   4.263  0.00  0.00    +0.000 C 
ATOM     67 O    GLU A  11       4.075  -0.681   3.667  0.00  0.00    +0.000 OA
ATOM     68 CB   GLU A  11       6.071   1.529   4.198  0.00  0.00    +0.000 C 
ATOM     69 CG   GLU A  11       7.277   2.439   4.017  0.00  0.00    +0.000 C 
ATOM     70 CD   GLU A  11       6.996   3.859   4.462  0.00  0.00    +0.000 C 
ATOM     71 OE1  GLU A  11       5.818   4.238   4.558  0.00  0.00    +0.000 OA
ATOM     72 OE2  GLU A  11       7.965   4.598   4.711  0.00  0.00    +0.000 OA
ATOM     73 N    GLY A  12       5.341  -1.595   5.298  0.00  0.00    +0.000 N 
ATOM     74 CA   GLY A  12       4.257  -2.357   5.886  0.00  0.00    +0.000 C 
ATOM     75 C    GLY A  12       3.397  -3.085   4.872  0.00  0.00    +0.000 C 
ATOM     76 O    GLY A  12       3.894  -3.625   3.882  0.00  0.00    +0.000 OA
ATOM     77 N    ILE A  13       2.100  -3.101   5.138  0.00  0.00    +0.000 N 
ATOM     78 CA   ILE A  13       1.162  -3.773   4.251  0.00  0.00    +0.000 C 
ATOM     79 C    ILE A  13       1.160  -3.123   2.877  0.00  0.00    +0.000 C 
ATOM     80 O    ILE A  13       1.067  -3.804   1.855  0.00  0.00    +0.000 OA
ATOM     81 CB   ILE A  13      -0.249  -3.784   4.865  0.00  0.00    +0.000 C 
ATOM     82 CG1  ILE A  13      -0.283  -4.742   6.062  0.00  0.00    +0.000 C 
ATOM     83 CG2  ILE A  13      -1.287  -4.188   3.833  0.00  0.00    +0.000 C 
ATOM     84 CD1  ILE A  13      -1.608  -4.757   6.793  0.00  0.00    +0.000 C 
ATOM     85 N    GLY A  14       1.282  -1.803   2.836  0.00  0.00    +0.000 N 
ATOM     86 CA   GLY A  14       1.294  -1.106   1.561  0.00  0.00    +0.000 C 
ATOM     87 C    GLY A  14       2.423  -1.559   0.661  0.00  0.00    +0.000 C 
ATOM     88 O    GLY A  14       2.226  -1.795  -0.532  0.00  0.00    +0.000 OA
ATOM     89 N    GLY A  15       3.608  -1.681   1.222  0.00  0.00    +0.000 N 
ATOM     90 CA   GLY A  15       4.745  -2.150   0.444  0.00  0.00    +0.000 C 
ATOM     91 C    GLY A  15       4.619  -3.614   0.068  0.00  0.00    +0.000 C 
ATOM     92 O    GLY A  15       5.028  -4.024  -1.015  0.00  0.00    +0.000 OA
ATOM     93 N    GLY A  16       4.033  -4.405   0.944  0.00  0.00    +0.000 N 
ATOM     94 CA   GLY A  16       3.880  -5.826   0.679  0.00  0.00    +0.000 C 
ATOM     95 C    GLY A  16       2.851  -6.123  -0.385  0.00  0.00    +0.000 C 
ATOM     96 O    GLY A  16       2.963  -7.121  -1.097  0.00  0.00    +0.000 OA
ATOM     97 N    LEU A  17       1.842  -5.269  -0.510  0.00  0.00    +0.000 N 
ATOM     98 CA   LEU A  17       0.807  -5.480  -1.508  0.00  0.00    +0.000 C 
ATOM     99 C    LEU A  17       1.343  -5.333  -2.925  0.00  0.00    +0.000 C 
ATOM    100 O    LEU A  17       0.897  -6.031  -3.835  0.00  0.00    +0.000 OA
ATOM    101 CB   LEU A  17      -0.347  -4.498  -1.288  0.00  0.00    +0.000 C 
ATOM    102 CG   LEU A  17      -1.234  -4.799  -0.091  0.00  0.00    +0.000 C 
ATOM    103 CD1  LEU A  17      -2.179  -3.633   0.167  0.00  0.00    +0.000 C 
ATOM    104 CD2  LEU A  17      -2.037  -6.073  -0.334  0.00  0.00    +0.000 C 
ATOM    105 N    GLY A  18       2.267  -4.430  -3.132  0.00  0.00    +0.000 N 
ATOM    106 CA   GLY A  18       2.860  -4.257  -4.448  0.00  0.00    +0.000 C 
ATOM    107 C    GLY A  18       1.949  -3.617  -5.464  0.00  0.00    +0.000 C 
ATOM    108 O    GLY A  18       2.170  -3.763  -6.668  0.00  0.00    +0.000 OA
ATOM    109 N    GLY A  19       0.940  -2.887  -5.024  0.00  0.00    +0.000 N 
ATOM    110 CA   GLY A  19       0.028  -2.225  -5.938  0.00  0.00    +0.000 C 
ATOM    111 C    GLY A  19       0.333  -0.751  -6.068  0.00  0.00    +0.000 C 
ATOM    112 O    GLY A  19       1.157  -0.199  -5.348  0.00  0.00    +0.000 OA
ATOM    113 N    SER A  20      -0.338  -0.102  -7.009  0.00  0.00    +0.000 N 
ATOM    114 CA   SER A  20      -0.172   1.324  -7.225  0.00  0.00    +0.000 C 
ATOM    115 C    SER A  20      -1.235   2.071  -6.424  0.00  0.00    +0.000 C 
ATOM    116 O    SER A  20      -2.408   2.075  -6.783  0.00  0.00    +0.000 OA
ATOM    117 CB   SER A  20      -0.281   1.661  -8.711  0.00  0.00    +0.000 C 
ATOM    118 OG   SER A  20      -1.528   1.277  -9.239  0.00  0.00    +0.000 OA
ATOM    119 N    GLY A  21      -0.821   2.672  -5.338  0.00  0.00    +0.000 N 
ATOM    120 CA   GLY A  21      -1.743   3.394  -4.492  0.00  0.00    +0.000 C 
ATOM    121 C    GLY A  21      -2.684   2.503  -3.715  0.00  0.00    +0.000 C 
ATOM    122 O    GLY A  21      -3.763   2.943  -3.330  0.00  0.00    +0.000 OA
ATOM    123 N    GLY A  22      -2.290   1.274  -3.474  0.00  0.00    +0.000 N 
ATOM    124 CA   GLY A  22      -3.115   0.337  -2.738  0.00  0.00    +0.000 C 
ATOM    125 C    GLY A  22      -4.474   0.172  -3.369  0.00  0.00    +0.000 C 
ATOM    126 O    GLY A  22      -4.584  -0.147  -4.556  0.00  0.00    +0.000 OA
ATOM    127 N    TRP A  23      -5.532   0.407  -2.587  0.00  0.00    +0.000 N 
ATOM    128 CA   TRP A  23      -6.899   0.286  -3.064  0.00  0.00    +0.000 C 
ATOM    129 C    TRP A  23      -7.476   1.629  -3.510  0.00  0.00    +0.000 C 
ATOM    130 O    TRP A  23      -8.689   1.823  -3.500  0.00  0.00    +0.000 OA
ATOM    131 CB   TRP A  23      -7.779  -0.332  -1.978  0.00  0.00    +0.000 C 
ATOM    132 CG   TRP A  23      -7.464  -1.770  -1.719  0.00  0.00    +0.000 C 
ATOM    133 CD1  TRP A  23      -7.864  -2.841  -2.453  0.00  0.00    +0.000 C 
ATOM    134 CD2  TRP A  23      -6.658  -2.296  -0.660  0.00  0.00    +0.000 C 
ATOM    135 NE1  TRP A  23      -7.358  -3.999  -1.904  0.00  0.00    +0.000 NA
ATOM    136 CE2  TRP A  23      -6.619  -3.695  -0.799  0.00  0.00    +0.000 C 
ATOM    137 CE3  TRP A  23      -5.971  -1.702   0.415  0.00  0.00    +0.000 C 
ATOM    138 CZ2  TRP A  23      -5.918  -4.518   0.082  0.00  0.00    +0.000 C 
ATOM    139 CZ3  TRP A  23      -5.280  -2.515   1.287  0.00  0.00    +0.000 C 
ATOM    140 CH2  TRP A  23      -5.259  -3.912   1.125  0.00  0.00    +0.000 C 
ATOM    141 N    GLY A  24      -6.598   2.543  -3.921  0.00  0.00    +0.000 N 
ATOM    142 CA   GLY A  24      -7.026   3.831  -4.422  0.00  0.00    +0.000 C 
ATOM    143 C    GLY A  24      -7.194   4.907  -3.375  0.00  0.00    +0.000 C 
ATOM    144 O    GLY A  24      -7.719   5.972  -3.690  0.00  0.00    +0.000 OA
ATOM    145 N    ASP A  25      -6.748   4.667  -2.179  0.00  0.00    +0.000 N 
ATOM    146 CA   ASP A  25      -6.889   5.626  -1.079  0.00  0.00    +0.000 C 
ATOM    147 C    ASP A  25      -5.862   6.757  -1.165  0.00  0.00    +0.000 C 
ATOM    148 O    ASP A  25      -4.779   6.560  -1.734  0.00  0.00    +0.000 OA
ATOM    149 CB   ASP A  25      -6.756   4.905   0.269  0.00  0.00    +0.000 C 
ATOM    150 CG   ASP A  25      -7.814   3.845   0.463  0.00  0.00    +0.000 C 
ATOM    151 OD1  ASP A  25      -7.901   2.938  -0.389  0.00  0.00    +0.000 OA
ATOM    152 OD2  ASP A  25      -8.537   3.902   1.470  0.00  0.00    +0.000 OA
ATOM    153  H   PHE A   1      -5.559   0.939   5.186  0.00  0.00    +0.000 HD
ATOM    154  H   PHE A   1      -4.546   2.082   4.521  0.00  0.00    +0.000 HD
ATOM    155  H   GLY A   2      -4.905   4.120   5.906  0.00  0.00    +0.000 HD
ATOM    156  H   ARG A   3      -2.991   4.727   4.368  0.00  0.00    +0.000 HD
ATOM    157  H   ARG A   3      -0.577   0.988   4.913  0.00  0.00    +0.000 HD
ATOM    158  H   ARG A   3      -0.243  -0.103   6.181  0.00  0.00    +0.000 HD
ATOM    159  H   ARG A   3       3.116   0.721   6.415  0.00  0.00    +0.000 HD
ATOM    160  H   ARG A   3       1.866  -0.256   7.040  0.00  0.00    +0.000 HD
ATOM    161  H   GLY A   4      -0.395   7.907   2.675  0.00  0.00    +0.000 HD
ATOM    162  H   LYS A   5      -2.252   8.855  -1.426  0.00  0.00    +0.000 HD
ATOM    163  H   LYS A   5      -4.673   6.411  -7.361  0.00  0.00    +0.000 HD
ATOM    164  H   LYS A   5      -5.580   7.800  -7.513  0.00  0.00    +0.000 HD
ATOM    165  H   GLY A   6       0.078   5.404  -3.163  0.00  0.00    +0.000 HD
ATOM    166  H   GLY A   7       1.295   6.470  -0.955  0.00  0.00    +0.000 HD
ATOM    167  H   GLY A   8       2.054   4.101  -0.193  0.00  0.00    +0.000 HD
ATOM    168  H   ASP A   9       4.409   3.392  -0.794  0.00  0.00    +0.000 HD
ATOM    169  H   ASP A   9       6.635   0.174  -2.674  0.00  0.00    +0.000 HD
ATOM    170  H   GLY A  10       6.390  -0.602  -0.730  0.00  0.00    +0.000 HD
ATOM    171  H   GLU A  11       5.913   0.035   1.779  0.00  0.00    +0.000 HD
ATOM    172  H   GLU A  11       8.839   4.270   4.625  0.00  0.00    +0.000 HD
ATOM    173  H   GLY A  12       6.247  -1.682   5.673  0.00  0.00    +0.000 HD
ATOM    174  H   ILE A  13       1.765  -2.652   5.948  0.00  0.00    +0.000 HD
ATOM    175  H   GLY A  14       1.365  -1.293   3.674  0.00  0.00    +0.000 HD
ATOM    176  H   GLY A  15       3.725  -1.454   2.173  0.00  0.00    +0.000 HD
ATOM    177  H   GLY A  16       3.695  -4.029   1.789  0.00  0.00    +0.000 HD
ATOM    178  H   LEU A  17       1.794  -4.483   0.081  0.00  0.00    +0.000 HD
ATOM    179  H   GLY A  18       2.565  -3.860  -2.386  0.00  0.00    +0.000 HD
ATOM    180  H   GLY A  19       0.804  -2.790  -4.054  0.00  0.00    +0.000 HD
ATOM    181  H   SER A  20      -0.967  -0.602  -7.578  0.00  0.00    +0.000 HD
ATOM    182  H   SER A  20      -2.235   1.754  -8.778  0.00  0.00    +0.000 HD
ATOM    183  H   GLY A  21       0.132   2.632  -5.094  0.00  0.00    +0.000 HD
ATOM    184  H   GLY A  22      -1.409   0.981  -3.802  0.00  0.00    +0.000 HD
ATOM    185  H   TRP A  23      -5.379   0.672  -1.651  0.00  0.00    +0.000 HD
ATOM    186  H   GLY A  24      -5.636   2.337  -3.883  0.00  0.00    +0.000 HD
ATOM    187  H   ASP A  25      -6.298   3.809  -2.004  0.00  0.00    +0.000 HD
ATOM    188  H   ASP A  25      -8.433   4.604   2.082  0.00  0.00    +0.000 HD
TER 
