MODEL 1
REMARK VINA RESULT:      -5.8      0.000      0.000
REMARK  Name = ox1_orig_f12_ligand
REMARK  5 active torsions:
REMARK  status: ('A' for Active; 'I' for Inactive)
REMARK    1  A    between atoms: C_1  and  O_2
REMARK    2  A    between atoms: O_2  and  C_3
REMARK    3  A    between atoms: C_6  and  C_7
REMARK    4  A    between atoms: C_7  and  C_9
REMARK    5  A    between atoms: C_15  and  O_16
REMARK                            x       y       z     vdW  Elec       q    Type
REMARK                         _______ _______ _______ _____ _____    ______ ____
ROOT
ATOM      1  C   UNL     1      -4.105   1.339   1.887  0.00  0.00    +0.000 A 
ATOM      2  C   UNL     1      -2.849   0.768   2.061  0.00  0.00    +0.000 A 
ATOM      3  C   UNL     1      -1.750   1.296   1.398  0.00  0.00    +0.000 A 
ATOM      4  C   UNL     1      -1.893   2.390   0.549  0.00  0.00    +0.000 A 
ATOM      5  C   UNL     1      -3.150   2.961   0.384  0.00  0.00    +0.000 A 
ATOM      6  C   UNL     1      -4.243   2.437   1.055  0.00  0.00    +0.000 A 
ENDROOT
BRANCH   1   8
ATOM      7  C   UNL     1      -6.475   1.207   2.267  0.00  0.00    +0.000 C 
ATOM      8  O   UNL     1      -5.162   0.785   2.557  0.00  0.00    +0.000 OA
ENDBRANCH   1   8
BRANCH   4   9
ATOM      9  C   UNL     1      -0.715   2.982  -0.178  0.00  0.00    +0.000 C 
ATOM     10  O   UNL     1      -0.429   4.139   0.052  0.00  0.00    +0.000 OA
BRANCH   9  11
ATOM     11  C   UNL     1       0.126   2.212  -1.123  0.00  0.00    +0.000 A 
ATOM     12  C   UNL     1       0.055   0.827  -1.200  0.00  0.00    +0.000 A 
ATOM     13  C   UNL     1       0.852   0.132  -2.081  0.00  0.00    +0.000 A 
ATOM     14  C   UNL     1       1.736   0.811  -2.905  0.00  0.00    +0.000 A 
ATOM     15  C   UNL     1       1.805   2.197  -2.853  0.00  0.00    +0.000 A 
ATOM     16  C   UNL     1       0.989   2.910  -1.979  0.00  0.00    +0.000 A 
ENDBRANCH   9  11
ENDBRANCH   4   9
BRANCH   5  17
ATOM     17  O   UNL     1      -3.282   4.035  -0.434  0.00  0.00    +0.000 OA
ATOM     18  H   UNL     1      -3.424   4.936  -0.049  0.00  0.00    +0.000 HD
ENDBRANCH   5  17
TORSDOF 4
ENDMDL
MODEL 2
REMARK VINA RESULT:      -5.6      2.313      7.197
REMARK  Name = ox1_orig_f12_ligand
REMARK  5 active torsions:
REMARK  status: ('A' for Active; 'I' for Inactive)
REMARK    1  A    between atoms: C_1  and  O_2
REMARK    2  A    between atoms: O_2  and  C_3
REMARK    3  A    between atoms: C_6  and  C_7
REMARK    4  A    between atoms: C_7  and  C_9
REMARK    5  A    between atoms: C_15  and  O_16
REMARK                            x       y       z     vdW  Elec       q    Type
REMARK                         _______ _______ _______ _____ _____    ______ ____
ROOT
ATOM      1  C   UNL     1      -2.518   1.850   0.964  0.00  0.00    +0.000 A 
ATOM      2  C   UNL     1      -3.383   0.796   0.691  0.00  0.00    +0.000 A 
ATOM      3  C   UNL     1      -4.644   0.768   1.270  0.00  0.00    +0.000 A 
ATOM      4  C   UNL     1      -5.050   1.781   2.134  0.00  0.00    +0.000 A 
ATOM      5  C   UNL     1      -4.183   2.836   2.397  0.00  0.00    +0.000 A 
ATOM      6  C   UNL     1      -2.929   2.866   1.809  0.00  0.00    +0.000 A 
ENDROOT
BRANCH   1   8
ATOM      7  C   UNL     1      -0.874   2.925  -0.423  0.00  0.00    +0.000 C 
ATOM      8  O   UNL     1      -1.282   1.838   0.374  0.00  0.00    +0.000 OA
ENDBRANCH   1   8
BRANCH   4   9
ATOM      9  C   UNL     1      -6.414   1.773   2.770  0.00  0.00    +0.000 C 
ATOM     10  O   UNL     1      -6.796   2.792   3.308  0.00  0.00    +0.000 OA
BRANCH   9  11
ATOM     11  C   UNL     1      -7.318   0.601   2.737  0.00  0.00    +0.000 A 
ATOM     12  C   UNL     1      -7.247  -0.403   3.694  0.00  0.00    +0.000 A 
ATOM     13  C   UNL     1      -8.093  -1.488   3.638  0.00  0.00    +0.000 A 
ATOM     14  C   UNL     1      -9.029  -1.587   2.620  0.00  0.00    +0.000 A 
ATOM     15  C   UNL     1      -9.126  -0.584   1.666  0.00  0.00    +0.000 A 
ATOM     16  C   UNL     1      -8.287   0.526   1.727  0.00  0.00    +0.000 A 
ENDBRANCH   9  11
ENDBRANCH   4   9
BRANCH   5  17
ATOM     17  O   UNL     1      -4.589   3.828   3.228  0.00  0.00    +0.000 OA
ATOM     18  H   UNL     1      -5.517   3.836   3.573  0.00  0.00    +0.000 HD
ENDBRANCH   5  17
TORSDOF 4
ENDMDL
MODEL 3
REMARK VINA RESULT:      -5.6      2.137      6.252
REMARK  Name = ox1_orig_f12_ligand
REMARK  5 active torsions:
REMARK  status: ('A' for Active; 'I' for Inactive)
REMARK    1  A    between atoms: C_1  and  O_2
REMARK    2  A    between atoms: O_2  and  C_3
REMARK    3  A    between atoms: C_6  and  C_7
REMARK    4  A    between atoms: C_7  and  C_9
REMARK    5  A    between atoms: C_15  and  O_16
REMARK                            x       y       z     vdW  Elec       q    Type
REMARK                         _______ _______ _______ _____ _____    ______ ____
ROOT
ATOM      1  C   UNL     1       0.794   2.436  -2.163  0.00  0.00    +0.000 A 
ATOM      2  C   UNL     1       0.190   3.277  -1.234  0.00  0.00    +0.000 A 
ATOM      3  C   UNL     1      -0.605   2.741  -0.230  0.00  0.00    +0.000 A 
ATOM      4  C   UNL     1      -0.815   1.367  -0.149  0.00  0.00    +0.000 A 
ATOM      5  C   UNL     1      -0.202   0.531  -1.077  0.00  0.00    +0.000 A 
ATOM      6  C   UNL     1       0.599   1.069  -2.072  0.00  0.00    +0.000 A 
ENDROOT
BRANCH   1   8
ATOM      7  C   UNL     1       2.681   2.309  -3.648  0.00  0.00    +0.000 C 
ATOM      8  O   UNL     1       1.568   3.006  -3.138  0.00  0.00    +0.000 OA
ENDBRANCH   1   8
BRANCH   4   9
ATOM      9  C   UNL     1      -1.670   0.763   0.932  0.00  0.00    +0.000 C 
ATOM     10  O   UNL     1      -1.287  -0.264   1.453  0.00  0.00    +0.000 OA
BRANCH   9  11
ATOM     11  C   UNL     1      -2.927   1.382   1.412  0.00  0.00    +0.000 A 
ATOM     12  C   UNL     1      -4.167   0.992   0.920  0.00  0.00    +0.000 A 
ATOM     13  C   UNL     1      -5.321   1.587   1.376  0.00  0.00    +0.000 A 
ATOM     14  C   UNL     1      -5.257   2.584   2.336  0.00  0.00    +0.000 A 
ATOM     15  C   UNL     1      -4.028   2.972   2.852  0.00  0.00    +0.000 A 
ATOM     16  C   UNL     1      -2.856   2.362   2.411  0.00  0.00    +0.000 A 
ENDBRANCH   9  11
ENDBRANCH   4   9
BRANCH   5  17
ATOM     17  O   UNL     1      -0.399  -0.808  -0.986  0.00  0.00    +0.000 OA
ATOM     18  H   UNL     1      -0.469  -1.238  -0.097  0.00  0.00    +0.000 HD
ENDBRANCH   5  17
TORSDOF 4
ENDMDL
MODEL 4
REMARK VINA RESULT:      -5.1      1.942      2.643
REMARK  Name = ox1_orig_f12_ligand
REMARK  5 active torsions:
REMARK  status: ('A' for Active; 'I' for Inactive)
REMARK    1  A    between atoms: C_1  and  O_2
REMARK    2  A    between atoms: O_2  and  C_3
REMARK    3  A    between atoms: C_6  and  C_7
REMARK    4  A    between atoms: C_7  and  C_9
REMARK    5  A    between atoms: C_15  and  O_16
REMARK                            x       y       z     vdW  Elec       q    Type
REMARK                         _______ _______ _______ _____ _____    ______ ____
ROOT
ATOM      1  C   UNL     1      -4.561   2.633   2.284  0.00  0.00    +0.000 A 
ATOM      2  C   UNL     1      -4.564   2.605   0.893  0.00  0.00    +0.000 A 
ATOM      3  C   UNL     1      -3.551   1.943   0.213  0.00  0.00    +0.000 A 
ATOM      4  C   UNL     1      -2.523   1.313   0.909  0.00  0.00    +0.000 A 
ATOM      5  C   UNL     1      -2.530   1.339   2.299  0.00  0.00    +0.000 A 
ATOM      6  C   UNL     1      -3.547   1.993   2.975  0.00  0.00    +0.000 A 
ENDROOT
BRANCH   1   8
ATOM      7  C   UNL     1      -5.420   4.659   3.253  0.00  0.00    +0.000 C 
ATOM      8  O   UNL     1      -5.576   3.300   2.916  0.00  0.00    +0.000 OA
ENDBRANCH   1   8
BRANCH   4   9
ATOM      9  C   UNL     1      -1.416   0.587   0.192  0.00  0.00    +0.000 C 
ATOM     10  O   UNL     1      -1.340  -0.616   0.335  0.00  0.00    +0.000 OA
BRANCH   9  11
ATOM     11  C   UNL     1      -0.450   1.262  -0.704  0.00  0.00    +0.000 A 
ATOM     12  C   UNL     1       0.414   0.544  -1.521  0.00  0.00    +0.000 A 
ATOM     13  C   UNL     1       1.309   1.195  -2.339  0.00  0.00    +0.000 A 
ATOM     14  C   UNL     1       1.356   2.580  -2.357  0.00  0.00    +0.000 A 
ATOM     15  C   UNL     1       0.487   3.313  -1.561  0.00  0.00    +0.000 A 
ATOM     16  C   UNL     1      -0.435   2.663  -0.744  0.00  0.00    +0.000 A 
ENDBRANCH   9  11
ENDBRANCH   4   9
BRANCH   5  17
ATOM     17  O   UNL     1      -1.532   0.713   2.972  0.00  0.00    +0.000 OA
ATOM     18  H   UNL     1      -0.603   0.754   2.633  0.00  0.00    +0.000 HD
ENDBRANCH   5  17
TORSDOF 4
ENDMDL
MODEL 5
REMARK VINA RESULT:      -4.6      7.906      9.289
REMARK  Name = ox1_orig_f12_ligand
REMARK  5 active torsions:
REMARK  status: ('A' for Active; 'I' for Inactive)
REMARK    1  A    between atoms: C_1  and  O_2
REMARK    2  A    between atoms: O_2  and  C_3
REMARK    3  A    between atoms: C_6  and  C_7
REMARK    4  A    between atoms: C_7  and  C_9
REMARK    5  A    between atoms: C_15  and  O_16
REMARK                            x       y       z     vdW  Elec       q    Type
REMARK                         _______ _______ _______ _____ _____    ______ ____
ROOT
ATOM      1  C   UNL     1      -9.035   1.251   7.475  0.00  0.00    +0.000 A 
ATOM      2  C   UNL     1      -8.381   0.026   7.402  0.00  0.00    +0.000 A 
ATOM      3  C   UNL     1      -7.946  -0.454   6.174  0.00  0.00    +0.000 A 
ATOM      4  C   UNL     1      -8.168   0.276   5.009  0.00  0.00    +0.000 A 
ATOM      5  C   UNL     1      -8.816   1.503   5.090  0.00  0.00    +0.000 A 
ATOM      6  C   UNL     1      -9.240   1.983   6.319  0.00  0.00    +0.000 A 
ENDROOT
BRANCH   1   8
ATOM      7  C   UNL     1      -8.815   1.209   9.870  0.00  0.00    +0.000 C 
ATOM      8  O   UNL     1      -9.450   1.686   8.706  0.00  0.00    +0.000 OA
ENDBRANCH   1   8
BRANCH   4   9
ATOM      9  C   UNL     1      -7.702  -0.223   3.667  0.00  0.00    +0.000 C 
ATOM     10  O   UNL     1      -6.729   0.305   3.171  0.00  0.00    +0.000 OA
BRANCH   9  11
ATOM     11  C   UNL     1      -8.351  -1.345   2.950  0.00  0.00    +0.000 A 
ATOM     12  C   UNL     1      -8.134  -2.667   3.315  0.00  0.00    +0.000 A 
ATOM     13  C   UNL     1      -8.742  -3.694   2.628  0.00  0.00    +0.000 A 
ATOM     14  C   UNL     1      -9.582  -3.415   1.561  0.00  0.00    +0.000 A 
ATOM     15  C   UNL     1      -9.824  -2.098   1.195  0.00  0.00    +0.000 A 
ATOM     16  C   UNL     1      -9.228  -1.053   1.897  0.00  0.00    +0.000 A 
ENDBRANCH   9  11
ENDBRANCH   4   9
BRANCH   5  17
ATOM     17  O   UNL     1      -9.018   2.216   3.954  0.00  0.00    +0.000 OA
ATOM     18  H   UNL     1      -9.937   2.360   3.616  0.00  0.00    +0.000 HD
ENDBRANCH   5  17
TORSDOF 4
ENDMDL
MODEL 6
REMARK VINA RESULT:      -4.6      7.932      9.787
REMARK  Name = ox1_orig_f12_ligand
REMARK  5 active torsions:
REMARK  status: ('A' for Active; 'I' for Inactive)
REMARK    1  A    between atoms: C_1  and  O_2
REMARK    2  A    between atoms: O_2  and  C_3
REMARK    3  A    between atoms: C_6  and  C_7
REMARK    4  A    between atoms: C_7  and  C_9
REMARK    5  A    between atoms: C_15  and  O_16
REMARK                            x       y       z     vdW  Elec       q    Type
REMARK                         _______ _______ _______ _____ _____    ______ ____
ROOT
ATOM      1  C   UNL     1      -9.855  -2.711   1.052  0.00  0.00    +0.000 A 
ATOM      2  C   UNL     1      -9.132  -3.239   2.116  0.00  0.00    +0.000 A 
ATOM      3  C   UNL     1      -8.454  -2.391   2.981  0.00  0.00    +0.000 A 
ATOM      4  C   UNL     1      -8.482  -1.013   2.789  0.00  0.00    +0.000 A 
ATOM      5  C   UNL     1      -9.213  -0.491   1.727  0.00  0.00    +0.000 A 
ATOM      6  C   UNL     1      -9.896  -1.340   0.871  0.00  0.00    +0.000 A 
ENDROOT
BRANCH   1   8
ATOM      7  C   UNL     1     -10.182  -4.954   0.249  0.00  0.00    +0.000 C 
ATOM      8  O   UNL     1     -10.506  -3.583   0.221  0.00  0.00    +0.000 OA
ENDBRANCH   1   8
BRANCH   4   9
ATOM      9  C   UNL     1      -7.758  -0.073   3.716  0.00  0.00    +0.000 C 
ATOM     10  O   UNL     1      -6.766   0.487   3.296  0.00  0.00    +0.000 OA
BRANCH   9  11
ATOM     11  C   UNL     1      -8.219   0.224   5.091  0.00  0.00    +0.000 A 
ATOM     12  C   UNL     1      -7.796  -0.525   6.181  0.00  0.00    +0.000 A 
ATOM     13  C   UNL     1      -8.245  -0.234   7.450  0.00  0.00    +0.000 A 
ATOM     14  C   UNL     1      -9.127   0.816   7.651  0.00  0.00    +0.000 A 
ATOM     15  C   UNL     1      -9.545   1.586   6.575  0.00  0.00    +0.000 A 
ATOM     16  C   UNL     1      -9.081   1.311   5.291  0.00  0.00    +0.000 A 
ENDBRANCH   9  11
ENDBRANCH   4   9
BRANCH   5  17
ATOM     17  O   UNL     1      -9.247   0.854   1.552  0.00  0.00    +0.000 OA
ATOM     18  H   UNL     1      -8.908   1.455   2.262  0.00  0.00    +0.000 HD
ENDBRANCH   5  17
TORSDOF 4
ENDMDL
MODEL 7
REMARK VINA RESULT:      -4.4      8.483     10.188
REMARK  Name = ox1_orig_f12_ligand
REMARK  5 active torsions:
REMARK  status: ('A' for Active; 'I' for Inactive)
REMARK    1  A    between atoms: C_1  and  O_2
REMARK    2  A    between atoms: O_2  and  C_3
REMARK    3  A    between atoms: C_6  and  C_7
REMARK    4  A    between atoms: C_7  and  C_9
REMARK    5  A    between atoms: C_15  and  O_16
REMARK                            x       y       z     vdW  Elec       q    Type
REMARK                         _______ _______ _______ _____ _____    ______ ____
ROOT
ATOM      1  C   UNL     1      -9.326  -2.283   1.989  0.00  0.00    +0.000 A 
ATOM      2  C   UNL     1      -8.555  -2.372   3.144  0.00  0.00    +0.000 A 
ATOM      3  C   UNL     1      -8.097  -3.608   3.576  0.00  0.00    +0.000 A 
ATOM      4  C   UNL     1      -8.411  -4.767   2.871  0.00  0.00    +0.000 A 
ATOM      5  C   UNL     1      -9.177  -4.671   1.714  0.00  0.00    +0.000 A 
ATOM      6  C   UNL     1      -9.624  -3.433   1.280  0.00  0.00    +0.000 A 
ENDROOT
BRANCH   1   8
ATOM      7  C   UNL     1      -8.914   0.073   1.743  0.00  0.00    +0.000 C 
ATOM      8  O   UNL     1      -9.760  -1.044   1.600  0.00  0.00    +0.000 OA
ENDBRANCH   1   8
BRANCH   4   9
ATOM      9  C   UNL     1      -7.923  -6.119   3.320  0.00  0.00    +0.000 C 
ATOM     10  O   UNL     1      -8.721  -6.866   3.846  0.00  0.00    +0.000 OA
BRANCH   9  11
ATOM     11  C   UNL     1      -6.533  -6.588   3.113  0.00  0.00    +0.000 A 
ATOM     12  C   UNL     1      -5.492  -6.167   3.930  0.00  0.00    +0.000 A 
ATOM     13  C   UNL     1      -4.207  -6.611   3.714  0.00  0.00    +0.000 A 
ATOM     14  C   UNL     1      -3.940  -7.488   2.675  0.00  0.00    +0.000 A 
ATOM     15  C   UNL     1      -4.972  -7.933   1.861  0.00  0.00    +0.000 A 
ATOM     16  C   UNL     1      -6.278  -7.505   2.084  0.00  0.00    +0.000 A 
ENDBRANCH   9  11
ENDBRANCH   4   9
BRANCH   5  17
ATOM     17  O   UNL     1      -9.469  -5.801   1.024  0.00  0.00    +0.000 OA
ATOM     18  H   UNL     1     -10.410  -6.095   0.930  0.00  0.00    +0.000 HD
ENDBRANCH   5  17
TORSDOF 4
ENDMDL
MODEL 8
REMARK VINA RESULT:      -4.4      1.578      2.780
REMARK  Name = ox1_orig_f12_ligand
REMARK  5 active torsions:
REMARK  status: ('A' for Active; 'I' for Inactive)
REMARK    1  A    between atoms: C_1  and  O_2
REMARK    2  A    between atoms: O_2  and  C_3
REMARK    3  A    between atoms: C_6  and  C_7
REMARK    4  A    between atoms: C_7  and  C_9
REMARK    5  A    between atoms: C_15  and  O_16
REMARK                            x       y       z     vdW  Elec       q    Type
REMARK                         _______ _______ _______ _____ _____    ______ ____
ROOT
ATOM      1  C   UNL     1      -1.712   0.598   0.704  0.00  0.00    +0.000 A 
ATOM      2  C   UNL     1      -1.094  -0.170  -0.277  0.00  0.00    +0.000 A 
ATOM      3  C   UNL     1      -0.198   0.421  -1.157  0.00  0.00    +0.000 A 
ATOM      4  C   UNL     1       0.083   1.782  -1.076  0.00  0.00    +0.000 A 
ATOM      5  C   UNL     1      -0.534   2.544  -0.088  0.00  0.00    +0.000 A 
ATOM      6  C   UNL     1      -1.420   1.948   0.794  0.00  0.00    +0.000 A 
ENDROOT
BRANCH   1   8
ATOM      7  C   UNL     1      -3.726   0.670   2.015  0.00  0.00    +0.000 C 
ATOM      8  O   UNL     1      -2.591  -0.023   1.549  0.00  0.00    +0.000 OA
ENDBRANCH   1   8
BRANCH   4   9
ATOM      9  C   UNL     1       1.054   2.444  -2.017  0.00  0.00    +0.000 C 
ATOM     10  O   UNL     1       1.024   3.654  -2.105  0.00  0.00    +0.000 OA
BRANCH   9  11
ATOM     11  C   UNL     1       2.060   1.694  -2.803  0.00  0.00    +0.000 A 
ATOM     12  C   UNL     1       2.409   0.388  -2.484  0.00  0.00    +0.000 A 
ATOM     13  C   UNL     1       3.353  -0.287  -3.225  0.00  0.00    +0.000 A 
ATOM     14  C   UNL     1       3.965   0.334  -4.303  0.00  0.00    +0.000 A 
ATOM     15  C   UNL     1       3.614   1.632  -4.646  0.00  0.00    +0.000 A 
ATOM     16  C   UNL     1       2.646   2.316  -3.914  0.00  0.00    +0.000 A 
ENDBRANCH   9  11
ENDBRANCH   4   9
BRANCH   5  17
ATOM     17  O   UNL     1      -0.247   3.867  -0.005  0.00  0.00    +0.000 OA
ATOM     18  H   UNL     1      -0.648   4.502  -0.649  0.00  0.00    +0.000 HD
ENDBRANCH   5  17
TORSDOF 4
ENDMDL
MODEL 9
REMARK VINA RESULT:      -4.3      9.729     11.303
REMARK  Name = ox1_orig_f12_ligand
REMARK  5 active torsions:
REMARK  status: ('A' for Active; 'I' for Inactive)
REMARK    1  A    between atoms: C_1  and  O_2
REMARK    2  A    between atoms: O_2  and  C_3
REMARK    3  A    between atoms: C_6  and  C_7
REMARK    4  A    between atoms: C_7  and  C_9
REMARK    5  A    between atoms: C_15  and  O_16
REMARK                            x       y       z     vdW  Elec       q    Type
REMARK                         _______ _______ _______ _____ _____    ______ ____
ROOT
ATOM      1  C   UNL     1      -3.919  -7.640   2.826  0.00  0.00    +0.000 A 
ATOM      2  C   UNL     1      -4.238  -6.735   3.833  0.00  0.00    +0.000 A 
ATOM      3  C   UNL     1      -5.545  -6.291   3.976  0.00  0.00    +0.000 A 
ATOM      4  C   UNL     1      -6.542  -6.733   3.111  0.00  0.00    +0.000 A 
ATOM      5  C   UNL     1      -6.218  -7.643   2.110  0.00  0.00    +0.000 A 
ATOM      6  C   UNL     1      -4.914  -8.092   1.977  0.00  0.00    +0.000 A 
ENDROOT
BRANCH   1   8
ATOM      7  C   UNL     1      -1.745  -7.914   3.818  0.00  0.00    +0.000 C 
ATOM      8  O   UNL     1      -2.617  -8.050   2.719  0.00  0.00    +0.000 OA
ENDBRANCH   1   8
BRANCH   4   9
ATOM      9  C   UNL     1      -7.967  -6.267   3.248  0.00  0.00    +0.000 C 
ATOM     10  O   UNL     1      -8.760  -7.014   3.785  0.00  0.00    +0.000 OA
BRANCH   9  11
ATOM     11  C   UNL     1      -8.432  -4.936   2.796  0.00  0.00    +0.000 A 
ATOM     12  C   UNL     1      -8.105  -3.776   3.486  0.00  0.00    +0.000 A 
ATOM     13  C   UNL     1      -8.555  -2.550   3.051  0.00  0.00    +0.000 A 
ATOM     14  C   UNL     1      -9.341  -2.462   1.913  0.00  0.00    +0.000 A 
ATOM     15  C   UNL     1      -9.662  -3.609   1.202  0.00  0.00    +0.000 A 
ATOM     16  C   UNL     1      -9.195  -4.852   1.624  0.00  0.00    +0.000 A 
ENDBRANCH   9  11
ENDBRANCH   4   9
BRANCH   5  17
ATOM     17  O   UNL     1      -7.196  -8.081   1.279  0.00  0.00    +0.000 OA
ATOM     18  H   UNL     1      -6.993  -8.763   0.591  0.00  0.00    +0.000 HD
ENDBRANCH   5  17
TORSDOF 4
ENDMDL
