REMARK  Name = s2_esm2_control_ligand
REMARK  12 active torsions:
REMARK  status: ('A' for Active; 'I' for Inactive)
REMARK    1  A    between atoms: C_1  and  C_2
REMARK    2  A    between atoms: C_2  and  C_3
REMARK    3  A    between atoms: C_3  and  C_4
REMARK    4  A    between atoms: C_4  and  C_5
REMARK    5  A    between atoms: C_5  and  C_6
REMARK    6  A    between atoms: C_5  and  O_8
REMARK    7  A    between atoms: C_6  and  C_7
REMARK    8  A    between atoms: O_8  and  C_9
REMARK    9  A    between atoms: C_9  and  C_11
REMARK   10  A    between atoms: C_12  and  C_13
REMARK   11  A    between atoms: C_16  and  O_17
REMARK   12  A    between atoms: O_17  and  C_18
REMARK                            x       y       z     vdW  Elec       q    Type
REMARK                         _______ _______ _______ _____ _____    ______ ____
ROOT
ATOM      1  C   UNL     1     -12.173  -6.197   0.484  0.00  0.00    +0.000 C 
ATOM      2  O   UNL     1     -12.748  -7.234   0.290  0.00  0.00    +0.000 OA
ENDROOT
BRANCH   1   3
ATOM      3  C   UNL     1     -11.173  -5.625  -0.455  0.00  0.00    +0.000 C 
ATOM      4  C   UNL     1     -10.903  -6.301  -1.607  0.00  0.00    +0.000 C 
BRANCH   4   5
ATOM      5  C   UNL     1      -9.964  -5.814  -2.637  0.00  0.00    +0.000 A 
ATOM      6  C   UNL     1      -9.739  -6.612  -3.744  0.00  0.00    +0.000 A 
ATOM      7  C   UNL     1      -8.883  -6.200  -4.748  0.00  0.00    +0.000 A 
ATOM      8  C   UNL     1      -8.241  -4.992  -4.662  0.00  0.00    +0.000 A 
ATOM      9  C   UNL     1      -8.464  -4.193  -3.563  0.00  0.00    +0.000 A 
ATOM     10  C   UNL     1      -9.323  -4.608  -2.553  0.00  0.00    +0.000 A 
BRANCH   8  11
ATOM     11  O   UNL     1      -7.416  -4.635  -5.674  0.00  0.00    +0.000 OA
ATOM     12  C   UNL     1      -6.805  -3.351  -5.671  0.00  0.00    +0.000 C 
ENDBRANCH   8  11
ENDBRANCH   4   5
ENDBRANCH   1   3
BRANCH   1  13
ATOM     13  O   UNL     1     -12.423  -5.460   1.586  0.00  0.00    +0.000 OA
BRANCH  13  14
ATOM     14  C   UNL     1     -13.411  -5.895   2.504  0.00  0.00    +0.000 C 
BRANCH  14  15
ATOM     15  C   UNL     1     -12.781  -5.969   3.894  0.00  0.00    +0.000 C 
ATOM     16  C   UNL     1     -12.788  -7.358   4.508  0.00  0.00    +0.000 C 
ENDBRANCH  14  15
BRANCH  14  17
ATOM     17  C   UNL     1     -14.560  -4.917   2.515  0.00  0.00    +0.000 C 
BRANCH  17  18
ATOM     18  C   UNL     1     -15.114  -4.614   1.157  0.00  0.00    +0.000 C 
BRANCH  18  20
ATOM     19  C   UNL     1     -16.783  -3.326  -0.175  0.00  0.00    +0.000 C 
ATOM     20  C   UNL     1     -16.296  -3.693   1.222  0.00  0.00    +0.000 C 
ENDBRANCH  18  20
ENDBRANCH  17  18
ENDBRANCH  14  17
ENDBRANCH  13  14
ENDBRANCH   1  13
TORSDOF 9
