MODEL 1
REMARK VINA RESULT:      -4.1      0.000      0.000
REMARK  Name = s2_esm2_control_ligand
REMARK  12 active torsions:
REMARK  status: ('A' for Active; 'I' for Inactive)
REMARK    1  A    between atoms: C_1  and  C_2
REMARK    2  A    between atoms: C_2  and  C_3
REMARK    3  A    between atoms: C_3  and  C_4
REMARK    4  A    between atoms: C_4  and  C_5
REMARK    5  A    between atoms: C_5  and  C_6
REMARK    6  A    between atoms: C_5  and  O_8
REMARK    7  A    between atoms: C_6  and  C_7
REMARK    8  A    between atoms: O_8  and  C_9
REMARK    9  A    between atoms: C_9  and  C_11
REMARK   10  A    between atoms: C_12  and  C_13
REMARK   11  A    between atoms: C_16  and  O_17
REMARK   12  A    between atoms: O_17  and  C_18
REMARK                            x       y       z     vdW  Elec       q    Type
REMARK                         _______ _______ _______ _____ _____    ______ ____
ROOT
ATOM      1  C   UNL     1     -10.387   2.162   3.586  0.00  0.00    +0.000 C 
ATOM      2  O   UNL     1     -11.522   2.029   3.959  0.00  0.00    +0.000 OA
ENDROOT
BRANCH   1   3
ATOM      3  C   UNL     1      -9.861   1.564   2.331  0.00  0.00    +0.000 C 
ATOM      4  C   UNL     1      -8.606   1.907   1.926  0.00  0.00    +0.000 C 
BRANCH   4   5
ATOM      5  C   UNL     1      -7.956   1.348   0.723  0.00  0.00    +0.000 A 
ATOM      6  C   UNL     1      -6.684   0.821   0.854  0.00  0.00    +0.000 A 
ATOM      7  C   UNL     1      -6.034   0.269  -0.233  0.00  0.00    +0.000 A 
ATOM      8  C   UNL     1      -6.640   0.236  -1.462  0.00  0.00    +0.000 A 
ATOM      9  C   UNL     1      -7.908   0.757  -1.597  0.00  0.00    +0.000 A 
ATOM     10  C   UNL     1      -8.560   1.314  -0.504  0.00  0.00    +0.000 A 
BRANCH   8  11
ATOM     11  O   UNL     1      -5.961  -0.318  -2.494  0.00  0.00    +0.000 OA
ATOM     12  C   UNL     1      -5.275  -1.550  -2.310  0.00  0.00    +0.000 C 
ENDBRANCH   8  11
ENDBRANCH   4   5
ENDBRANCH   1   3
BRANCH   1  13
ATOM     13  O   UNL     1      -9.506   2.899   4.293  0.00  0.00    +0.000 OA
BRANCH  13  14
ATOM     14  C   UNL     1      -9.876   4.196   4.728  0.00  0.00    +0.000 C 
BRANCH  14  15
ATOM     15  C   UNL     1      -8.810   4.702   5.700  0.00  0.00    +0.000 C 
ATOM     16  C   UNL     1      -8.551   3.778   6.877  0.00  0.00    +0.000 C 
ENDBRANCH  14  15
BRANCH  14  17
ATOM     17  C   UNL     1      -9.967   5.124   3.542  0.00  0.00    +0.000 C 
BRANCH  17  18
ATOM     18  C   UNL     1      -8.652   5.399   2.882  0.00  0.00    +0.000 C 
BRANCH  18  20
ATOM     19  C   UNL     1     -10.170   5.148   0.919  0.00  0.00    +0.000 C 
ATOM     20  C   UNL     1      -8.724   5.240   1.392  0.00  0.00    +0.000 C 
ENDBRANCH  18  20
ENDBRANCH  17  18
ENDBRANCH  14  17
ENDBRANCH  13  14
ENDBRANCH   1  13
TORSDOF 9
ENDMDL
MODEL 2
REMARK VINA RESULT:      -3.9      0.949      2.845
REMARK  Name = s2_esm2_control_ligand
REMARK  12 active torsions:
REMARK  status: ('A' for Active; 'I' for Inactive)
REMARK    1  A    between atoms: C_1  and  C_2
REMARK    2  A    between atoms: C_2  and  C_3
REMARK    3  A    between atoms: C_3  and  C_4
REMARK    4  A    between atoms: C_4  and  C_5
REMARK    5  A    between atoms: C_5  and  C_6
REMARK    6  A    between atoms: C_5  and  O_8
REMARK    7  A    between atoms: C_6  and  C_7
REMARK    8  A    between atoms: O_8  and  C_9
REMARK    9  A    between atoms: C_9  and  C_11
REMARK   10  A    between atoms: C_12  and  C_13
REMARK   11  A    between atoms: C_16  and  O_17
REMARK   12  A    between atoms: O_17  and  C_18
REMARK                            x       y       z     vdW  Elec       q    Type
REMARK                         _______ _______ _______ _____ _____    ______ ____
ROOT
ATOM      1  C   UNL     1      -9.645   2.201   3.075  0.00  0.00    +0.000 C 
ATOM      2  O   UNL     1      -9.808   1.768   4.184  0.00  0.00    +0.000 OA
ENDROOT
BRANCH   1   3
ATOM      3  C   UNL     1      -9.128   1.386   1.944  0.00  0.00    +0.000 C 
ATOM      4  C   UNL     1      -7.999   1.804   1.306  0.00  0.00    +0.000 C 
BRANCH   4   5
ATOM      5  C   UNL     1      -7.365   1.060   0.200  0.00  0.00    +0.000 A 
ATOM      6  C   UNL     1      -8.073   0.913  -0.979  0.00  0.00    +0.000 A 
ATOM      7  C   UNL     1      -7.523   0.241  -2.054  0.00  0.00    +0.000 A 
ATOM      8  C   UNL     1      -6.264  -0.295  -1.968  0.00  0.00    +0.000 A 
ATOM      9  C   UNL     1      -5.554  -0.150  -0.798  0.00  0.00    +0.000 A 
ATOM     10  C   UNL     1      -6.108   0.525   0.283  0.00  0.00    +0.000 A 
BRANCH   8  11
ATOM     11  O   UNL     1      -5.772  -0.941  -3.051  0.00  0.00    +0.000 OA
ATOM     12  C   UNL     1      -5.243  -2.254  -2.912  0.00  0.00    +0.000 C 
ENDBRANCH   8  11
ENDBRANCH   4   5
ENDBRANCH   1   3
BRANCH   1  13
ATOM     13  O   UNL     1      -9.950   3.481   2.777  0.00  0.00    +0.000 OA
BRANCH  13  14
ATOM     14  C   UNL     1      -9.075   4.517   3.186  0.00  0.00    +0.000 C 
BRANCH  14  15
ATOM     15  C   UNL     1      -8.505   5.191   1.939  0.00  0.00    +0.000 C 
ATOM     16  C   UNL     1      -9.488   5.302   0.787  0.00  0.00    +0.000 C 
ENDBRANCH  14  15
BRANCH  14  17
ATOM     17  C   UNL     1      -9.835   5.527   4.011  0.00  0.00    +0.000 C 
BRANCH  17  18
ATOM     18  C   UNL     1      -9.801   5.259   5.484  0.00  0.00    +0.000 C 
BRANCH  18  20
ATOM     19  C   UNL     1      -7.555   5.563   6.524  0.00  0.00    +0.000 C 
ATOM     20  C   UNL     1      -8.535   4.574   5.904  0.00  0.00    +0.000 C 
ENDBRANCH  18  20
ENDBRANCH  17  18
ENDBRANCH  14  17
ENDBRANCH  13  14
ENDBRANCH   1  13
TORSDOF 9
ENDMDL
MODEL 3
REMARK VINA RESULT:      -3.9      6.634      9.790
REMARK  Name = s2_esm2_control_ligand
REMARK  12 active torsions:
REMARK  status: ('A' for Active; 'I' for Inactive)
REMARK    1  A    between atoms: C_1  and  C_2
REMARK    2  A    between atoms: C_2  and  C_3
REMARK    3  A    between atoms: C_3  and  C_4
REMARK    4  A    between atoms: C_4  and  C_5
REMARK    5  A    between atoms: C_5  and  C_6
REMARK    6  A    between atoms: C_5  and  O_8
REMARK    7  A    between atoms: C_6  and  C_7
REMARK    8  A    between atoms: O_8  and  C_9
REMARK    9  A    between atoms: C_9  and  C_11
REMARK   10  A    between atoms: C_12  and  C_13
REMARK   11  A    between atoms: C_16  and  O_17
REMARK   12  A    between atoms: O_17  and  C_18
REMARK                            x       y       z     vdW  Elec       q    Type
REMARK                         _______ _______ _______ _____ _____    ______ ____
ROOT
ATOM      1  C   UNL     1      -2.659  -4.786   3.106  0.00  0.00    +0.000 C 
ATOM      2  O   UNL     1      -1.852  -5.675   3.062  0.00  0.00    +0.000 OA
ENDROOT
BRANCH   1   3
ATOM      3  C   UNL     1      -2.358  -3.430   3.635  0.00  0.00    +0.000 C 
ATOM      4  C   UNL     1      -2.437  -3.225   4.980  0.00  0.00    +0.000 C 
BRANCH   4   5
ATOM      5  C   UNL     1      -2.120  -1.938   5.628  0.00  0.00    +0.000 A 
ATOM      6  C   UNL     1      -0.922  -1.324   5.310  0.00  0.00    +0.000 A 
ATOM      7  C   UNL     1      -0.580  -0.109   5.873  0.00  0.00    +0.000 A 
ATOM      8  C   UNL     1      -1.424   0.508   6.760  0.00  0.00    +0.000 A 
ATOM      9  C   UNL     1      -2.619  -0.098   7.078  0.00  0.00    +0.000 A 
ATOM     10  C   UNL     1      -2.961  -1.320   6.513  0.00  0.00    +0.000 A 
BRANCH   8  11
ATOM     11  O   UNL     1      -1.042   1.698   7.280  0.00  0.00    +0.000 OA
ATOM     12  C   UNL     1      -0.775   2.796   6.417  0.00  0.00    +0.000 C 
ENDBRANCH   8  11
ENDBRANCH   4   5
ENDBRANCH   1   3
BRANCH   1  13
ATOM     13  O   UNL     1      -3.914  -4.964   2.645  0.00  0.00    +0.000 OA
BRANCH  13  14
ATOM     14  C   UNL     1      -4.472  -4.010   1.759  0.00  0.00    +0.000 C 
BRANCH  14  15
ATOM     15  C   UNL     1      -3.879  -4.235   0.369  0.00  0.00    +0.000 C 
ATOM     16  C   UNL     1      -3.877  -3.001  -0.516  0.00  0.00    +0.000 C 
ENDBRANCH  14  15
BRANCH  14  17
ATOM     17  C   UNL     1      -5.971  -4.178   1.709  0.00  0.00    +0.000 C 
BRANCH  17  18
ATOM     18  C   UNL     1      -6.730  -3.066   2.366  0.00  0.00    +0.000 C 
BRANCH  18  20
ATOM     19  C   UNL     1      -6.018  -1.838   4.416  0.00  0.00    +0.000 C 
ATOM     20  C   UNL     1      -5.820  -2.008   2.914  0.00  0.00    +0.000 C 
ENDBRANCH  18  20
ENDBRANCH  17  18
ENDBRANCH  14  17
ENDBRANCH  13  14
ENDBRANCH   1  13
TORSDOF 9
ENDMDL
MODEL 4
REMARK VINA RESULT:      -3.8      8.482      9.356
REMARK  Name = s2_esm2_control_ligand
REMARK  12 active torsions:
REMARK  status: ('A' for Active; 'I' for Inactive)
REMARK    1  A    between atoms: C_1  and  C_2
REMARK    2  A    between atoms: C_2  and  C_3
REMARK    3  A    between atoms: C_3  and  C_4
REMARK    4  A    between atoms: C_4  and  C_5
REMARK    5  A    between atoms: C_5  and  C_6
REMARK    6  A    between atoms: C_5  and  O_8
REMARK    7  A    between atoms: C_6  and  C_7
REMARK    8  A    between atoms: O_8  and  C_9
REMARK    9  A    between atoms: C_9  and  C_11
REMARK   10  A    between atoms: C_12  and  C_13
REMARK   11  A    between atoms: C_16  and  O_17
REMARK   12  A    between atoms: O_17  and  C_18
REMARK                            x       y       z     vdW  Elec       q    Type
REMARK                         _______ _______ _______ _____ _____    ______ ____
ROOT
ATOM      1  C   UNL     1      -1.002   0.269   5.675  0.00  0.00    +0.000 C 
ATOM      2  O   UNL     1      -1.167   1.126   4.848  0.00  0.00    +0.000 OA
ENDROOT
BRANCH   1   3
ATOM      3  C   UNL     1      -1.021  -1.184   5.365  0.00  0.00    +0.000 C 
ATOM      4  C   UNL     1      -2.228  -1.806   5.243  0.00  0.00    +0.000 C 
BRANCH   4   5
ATOM      5  C   UNL     1      -2.378  -3.233   4.896  0.00  0.00    +0.000 A 
ATOM      6  C   UNL     1      -2.255  -3.597   3.567  0.00  0.00    +0.000 A 
ATOM      7  C   UNL     1      -2.369  -4.921   3.185  0.00  0.00    +0.000 A 
ATOM      8  C   UNL     1      -2.608  -5.896   4.119  0.00  0.00    +0.000 A 
ATOM      9  C   UNL     1      -2.728  -5.538   5.443  0.00  0.00    +0.000 A 
ATOM     10  C   UNL     1      -2.615  -4.208   5.827  0.00  0.00    +0.000 A 
BRANCH   8  11
ATOM     11  O   UNL     1      -2.708  -7.176   3.692  0.00  0.00    +0.000 OA
ATOM     12  C   UNL     1      -1.841  -8.170   4.223  0.00  0.00    +0.000 C 
ENDBRANCH   8  11
ENDBRANCH   4   5
ENDBRANCH   1   3
BRANCH   1  13
ATOM     13  O   UNL     1      -0.762   0.585   6.964  0.00  0.00    +0.000 OA
BRANCH  13  14
ATOM     14  C   UNL     1      -1.717   1.345   7.683  0.00  0.00    +0.000 C 
BRANCH  14  15
ATOM     15  C   UNL     1      -2.573   0.388   8.511  0.00  0.00    +0.000 C 
ATOM     16  C   UNL     1      -1.779  -0.666   9.263  0.00  0.00    +0.000 C 
ENDBRANCH  14  15
BRANCH  14  17
ATOM     17  C   UNL     1      -1.010   2.318   8.595  0.00  0.00    +0.000 C 
BRANCH  17  18
ATOM     18  C   UNL     1      -1.243   3.756   8.247  0.00  0.00    +0.000 C 
BRANCH  18  20
ATOM     19  C   UNL     1      -1.222   5.430   6.399  0.00  0.00    +0.000 C 
ATOM     20  C   UNL     1      -0.643   4.121   6.921  0.00  0.00    +0.000 C 
ENDBRANCH  18  20
ENDBRANCH  17  18
ENDBRANCH  14  17
ENDBRANCH  13  14
ENDBRANCH   1  13
TORSDOF 9
ENDMDL
MODEL 5
REMARK VINA RESULT:      -3.8      6.883      8.367
REMARK  Name = s2_esm2_control_ligand
REMARK  12 active torsions:
REMARK  status: ('A' for Active; 'I' for Inactive)
REMARK    1  A    between atoms: C_1  and  C_2
REMARK    2  A    between atoms: C_2  and  C_3
REMARK    3  A    between atoms: C_3  and  C_4
REMARK    4  A    between atoms: C_4  and  C_5
REMARK    5  A    between atoms: C_5  and  C_6
REMARK    6  A    between atoms: C_5  and  O_8
REMARK    7  A    between atoms: C_6  and  C_7
REMARK    8  A    between atoms: O_8  and  C_9
REMARK    9  A    between atoms: C_9  and  C_11
REMARK   10  A    between atoms: C_12  and  C_13
REMARK   11  A    between atoms: C_16  and  O_17
REMARK   12  A    between atoms: O_17  and  C_18
REMARK                            x       y       z     vdW  Elec       q    Type
REMARK                         _______ _______ _______ _____ _____    ______ ____
ROOT
ATOM      1  C   UNL     1      -2.731  -4.943   3.899  0.00  0.00    +0.000 C 
ATOM      2  O   UNL     1      -2.275  -6.001   4.239  0.00  0.00    +0.000 OA
ENDROOT
BRANCH   1   3
ATOM      3  C   UNL     1      -2.839  -4.513   2.481  0.00  0.00    +0.000 C 
ATOM      4  C   UNL     1      -3.967  -4.836   1.788  0.00  0.00    +0.000 C 
BRANCH   4   5
ATOM      5  C   UNL     1      -4.209  -4.429   0.390  0.00  0.00    +0.000 A 
ATOM      6  C   UNL     1      -5.202  -5.082  -0.317  0.00  0.00    +0.000 A 
ATOM      7  C   UNL     1      -5.484  -4.732  -1.624  0.00  0.00    +0.000 A 
ATOM      8  C   UNL     1      -4.783  -3.729  -2.242  0.00  0.00    +0.000 A 
ATOM      9  C   UNL     1      -3.796  -3.074  -1.541  0.00  0.00    +0.000 A 
ATOM     10  C   UNL     1      -3.510  -3.428  -0.229  0.00  0.00    +0.000 A 
BRANCH   8  11
ATOM     11  O   UNL     1      -5.102  -3.424  -3.522  0.00  0.00    +0.000 OA
ATOM     12  C   UNL     1      -6.419  -3.663  -4.001  0.00  0.00    +0.000 C 
ENDBRANCH   8  11
ENDBRANCH   4   5
ENDBRANCH   1   3
BRANCH   1  13
ATOM     13  O   UNL     1      -3.206  -4.068   4.809  0.00  0.00    +0.000 OA
BRANCH  13  14
ATOM     14  C   UNL     1      -2.973  -2.682   4.628  0.00  0.00    +0.000 C 
BRANCH  14  15
ATOM     15  C   UNL     1      -3.996  -1.907   5.458  0.00  0.00    +0.000 C 
ATOM     16  C   UNL     1      -5.384  -1.852   4.844  0.00  0.00    +0.000 C 
ENDBRANCH  14  15
BRANCH  14  17
ATOM     17  C   UNL     1      -1.577  -2.336   5.084  0.00  0.00    +0.000 C 
BRANCH  17  18
ATOM     18  C   UNL     1      -1.509  -1.141   5.984  0.00  0.00    +0.000 C 
BRANCH  18  20
ATOM     19  C   UNL     1      -1.237   1.291   5.506  0.00  0.00    +0.000 C 
ATOM     20  C   UNL     1      -0.586  -0.086   5.452  0.00  0.00    +0.000 C 
ENDBRANCH  18  20
ENDBRANCH  17  18
ENDBRANCH  14  17
ENDBRANCH  13  14
ENDBRANCH   1  13
TORSDOF 9
ENDMDL
MODEL 6
REMARK VINA RESULT:      -3.7      5.353      8.504
REMARK  Name = s2_esm2_control_ligand
REMARK  12 active torsions:
REMARK  status: ('A' for Active; 'I' for Inactive)
REMARK    1  A    between atoms: C_1  and  C_2
REMARK    2  A    between atoms: C_2  and  C_3
REMARK    3  A    between atoms: C_3  and  C_4
REMARK    4  A    between atoms: C_4  and  C_5
REMARK    5  A    between atoms: C_5  and  C_6
REMARK    6  A    between atoms: C_5  and  O_8
REMARK    7  A    between atoms: C_6  and  C_7
REMARK    8  A    between atoms: O_8  and  C_9
REMARK    9  A    between atoms: C_9  and  C_11
REMARK   10  A    between atoms: C_12  and  C_13
REMARK   11  A    between atoms: C_16  and  O_17
REMARK   12  A    between atoms: O_17  and  C_18
REMARK                            x       y       z     vdW  Elec       q    Type
REMARK                         _______ _______ _______ _____ _____    ______ ____
ROOT
ATOM      1  C   UNL     1      -4.745  -2.588  -1.438  0.00  0.00    +0.000 C 
ATOM      2  O   UNL     1      -4.359  -2.893  -2.534  0.00  0.00    +0.000 OA
ENDROOT
BRANCH   1   3
ATOM      3  C   UNL     1      -4.162  -3.127  -0.182  0.00  0.00    +0.000 C 
ATOM      4  C   UNL     1      -4.498  -4.391   0.200  0.00  0.00    +0.000 C 
BRANCH   4   5
ATOM      5  C   UNL     1      -3.950  -5.052   1.401  0.00  0.00    +0.000 A 
ATOM      6  C   UNL     1      -2.808  -4.523   1.973  0.00  0.00    +0.000 A 
ATOM      7  C   UNL     1      -2.260  -5.090   3.109  0.00  0.00    +0.000 A 
ATOM      8  C   UNL     1      -2.841  -6.189   3.686  0.00  0.00    +0.000 A 
ATOM      9  C   UNL     1      -3.980  -6.718   3.122  0.00  0.00    +0.000 A 
ATOM     10  C   UNL     1      -4.530  -6.149   1.980  0.00  0.00    +0.000 A 
BRANCH   8  11
ATOM     11  O   UNL     1      -2.267  -6.704   4.799  0.00  0.00    +0.000 OA
ATOM     12  C   UNL     1      -1.592  -7.953   4.735  0.00  0.00    +0.000 C 
ENDBRANCH   8  11
ENDBRANCH   4   5
ENDBRANCH   1   3
BRANCH   1  13
ATOM     13  O   UNL     1      -5.747  -1.698  -1.278  0.00  0.00    +0.000 OA
BRANCH  13  14
ATOM     14  C   UNL     1      -5.984  -1.142   0.004  0.00  0.00    +0.000 C 
BRANCH  14  15
ATOM     15  C   UNL     1      -5.920   0.381  -0.110  0.00  0.00    +0.000 C 
ATOM     16  C   UNL     1      -6.716   1.119   0.952  0.00  0.00    +0.000 C 
ENDBRANCH  14  15
BRANCH  14  17
ATOM     17  C   UNL     1      -7.348  -1.561   0.494  0.00  0.00    +0.000 C 
BRANCH  17  18
ATOM     18  C   UNL     1      -7.313  -2.549   1.619  0.00  0.00    +0.000 C 
BRANCH  18  20
ATOM     19  C   UNL     1      -5.589  -2.388   3.414  0.00  0.00    +0.000 C 
ATOM     20  C   UNL     1      -6.950  -1.905   2.925  0.00  0.00    +0.000 C 
ENDBRANCH  18  20
ENDBRANCH  17  18
ENDBRANCH  14  17
ENDBRANCH  13  14
ENDBRANCH   1  13
TORSDOF 9
ENDMDL
MODEL 7
REMARK VINA RESULT:      -3.7      5.048      7.708
REMARK  Name = s2_esm2_control_ligand
REMARK  12 active torsions:
REMARK  status: ('A' for Active; 'I' for Inactive)
REMARK    1  A    between atoms: C_1  and  C_2
REMARK    2  A    between atoms: C_2  and  C_3
REMARK    3  A    between atoms: C_3  and  C_4
REMARK    4  A    between atoms: C_4  and  C_5
REMARK    5  A    between atoms: C_5  and  C_6
REMARK    6  A    between atoms: C_5  and  O_8
REMARK    7  A    between atoms: C_6  and  C_7
REMARK    8  A    between atoms: O_8  and  C_9
REMARK    9  A    between atoms: C_9  and  C_11
REMARK   10  A    between atoms: C_12  and  C_13
REMARK   11  A    between atoms: C_16  and  O_17
REMARK   12  A    between atoms: O_17  and  C_18
REMARK                            x       y       z     vdW  Elec       q    Type
REMARK                         _______ _______ _______ _____ _____    ______ ____
ROOT
ATOM      1  C   UNL     1      -5.268  -3.159   4.804  0.00  0.00    +0.000 C 
ATOM      2  O   UNL     1      -5.840  -4.214   4.853  0.00  0.00    +0.000 OA
ENDROOT
BRANCH   1   3
ATOM      3  C   UNL     1      -5.878  -1.920   4.255  0.00  0.00    +0.000 C 
ATOM      4  C   UNL     1      -6.253  -1.906   2.945  0.00  0.00    +0.000 C 
BRANCH   4   5
ATOM      5  C   UNL     1      -6.908  -0.753   2.296  0.00  0.00    +0.000 A 
ATOM      6  C   UNL     1      -8.147  -0.357   2.766  0.00  0.00    +0.000 A 
ATOM      7  C   UNL     1      -8.800   0.726   2.208  0.00  0.00    +0.000 A 
ATOM      8  C   UNL     1      -8.229   1.427   1.178  0.00  0.00    +0.000 A 
ATOM      9  C   UNL     1      -6.994   1.038   0.709  0.00  0.00    +0.000 A 
ATOM     10  C   UNL     1      -6.338  -0.052   1.268  0.00  0.00    +0.000 A 
BRANCH   8  11
ATOM     11  O   UNL     1      -8.908   2.481   0.670  0.00  0.00    +0.000 OA
ATOM     12  C   UNL     1      -9.173   3.614   1.488  0.00  0.00    +0.000 C 
ENDBRANCH   8  11
ENDBRANCH   4   5
ENDBRANCH   1   3
BRANCH   1  13
ATOM     13  O   UNL     1      -4.012  -3.028   5.277  0.00  0.00    +0.000 OA
BRANCH  13  14
ATOM     14  C   UNL     1      -2.925  -3.007   4.367  0.00  0.00    +0.000 C 
BRANCH  14  15
ATOM     15  C   UNL     1      -1.761  -2.265   5.021  0.00  0.00    +0.000 C 
ATOM     16  C   UNL     1      -2.181  -1.121   5.927  0.00  0.00    +0.000 C 
ENDBRANCH  14  15
BRANCH  14  17
ATOM     17  C   UNL     1      -2.511  -4.420   4.038  0.00  0.00    +0.000 C 
BRANCH  17  18
ATOM     18  C   UNL     1      -2.350  -4.681   2.572  0.00  0.00    +0.000 C 
BRANCH  18  20
ATOM     19  C   UNL     1      -3.674  -3.876   0.618  0.00  0.00    +0.000 C 
ATOM     20  C   UNL     1      -3.670  -4.755   1.863  0.00  0.00    +0.000 C 
ENDBRANCH  18  20
ENDBRANCH  17  18
ENDBRANCH  14  17
ENDBRANCH  13  14
ENDBRANCH   1  13
TORSDOF 9
ENDMDL
MODEL 8
REMARK VINA RESULT:      -3.7      4.766      8.103
REMARK  Name = s2_esm2_control_ligand
REMARK  12 active torsions:
REMARK  status: ('A' for Active; 'I' for Inactive)
REMARK    1  A    between atoms: C_1  and  C_2
REMARK    2  A    between atoms: C_2  and  C_3
REMARK    3  A    between atoms: C_3  and  C_4
REMARK    4  A    between atoms: C_4  and  C_5
REMARK    5  A    between atoms: C_5  and  C_6
REMARK    6  A    between atoms: C_5  and  O_8
REMARK    7  A    between atoms: C_6  and  C_7
REMARK    8  A    between atoms: O_8  and  C_9
REMARK    9  A    between atoms: C_9  and  C_11
REMARK   10  A    between atoms: C_12  and  C_13
REMARK   11  A    between atoms: C_16  and  O_17
REMARK   12  A    between atoms: O_17  and  C_18
REMARK                            x       y       z     vdW  Elec       q    Type
REMARK                         _______ _______ _______ _____ _____    ______ ____
ROOT
ATOM      1  C   UNL     1      -7.109  -3.416   0.067  0.00  0.00    +0.000 C 
ATOM      2  O   UNL     1      -8.017  -4.179   0.260  0.00  0.00    +0.000 OA
ENDROOT
BRANCH   1   3
ATOM      3  C   UNL     1      -6.215  -2.915   1.143  0.00  0.00    +0.000 C 
ATOM      4  C   UNL     1      -5.487  -3.819   1.856  0.00  0.00    +0.000 C 
BRANCH   4   5
ATOM      5  C   UNL     1      -4.534  -3.442   2.919  0.00  0.00    +0.000 A 
ATOM      6  C   UNL     1      -3.203  -3.782   2.752  0.00  0.00    +0.000 A 
ATOM      7  C   UNL     1      -2.263  -3.440   3.705  0.00  0.00    +0.000 A 
ATOM      8  C   UNL     1      -2.635  -2.758   4.835  0.00  0.00    +0.000 A 
ATOM      9  C   UNL     1      -3.957  -2.415   5.004  0.00  0.00    +0.000 A 
ATOM     10  C   UNL     1      -4.903  -2.760   4.046  0.00  0.00    +0.000 A 
BRANCH   8  11
ATOM     11  O   UNL     1      -1.674  -2.444   5.735  0.00  0.00    +0.000 OA
ATOM     12  C   UNL     1      -0.870  -1.287   5.541  0.00  0.00    +0.000 C 
ENDBRANCH   8  11
ENDBRANCH   4   5
ENDBRANCH   1   3
BRANCH   1  13
ATOM     13  O   UNL     1      -6.827  -2.974  -1.176  0.00  0.00    +0.000 OA
BRANCH  13  14
ATOM     14  C   UNL     1      -5.709  -2.126  -1.375  0.00  0.00    +0.000 C 
BRANCH  14  15
ATOM     15  C   UNL     1      -4.627  -2.916  -2.110  0.00  0.00    +0.000 C 
ATOM     16  C   UNL     1      -3.379  -3.177  -1.286  0.00  0.00    +0.000 C 
ENDBRANCH  14  15
BRANCH  14  17
ATOM     17  C   UNL     1      -6.119  -0.931  -2.200  0.00  0.00    +0.000 C 
BRANCH  17  18
ATOM     18  C   UNL     1      -6.662   0.208  -1.393  0.00  0.00    +0.000 C 
BRANCH  18  20
ATOM     19  C   UNL     1      -6.723   0.934   0.992  0.00  0.00    +0.000 C 
ATOM     20  C   UNL     1      -5.844   0.469  -0.163  0.00  0.00    +0.000 C 
ENDBRANCH  18  20
ENDBRANCH  17  18
ENDBRANCH  14  17
ENDBRANCH  13  14
ENDBRANCH   1  13
TORSDOF 9
ENDMDL
MODEL 9
REMARK VINA RESULT:      -3.7      4.949      8.617
REMARK  Name = s2_esm2_control_ligand
REMARK  12 active torsions:
REMARK  status: ('A' for Active; 'I' for Inactive)
REMARK    1  A    between atoms: C_1  and  C_2
REMARK    2  A    between atoms: C_2  and  C_3
REMARK    3  A    between atoms: C_3  and  C_4
REMARK    4  A    between atoms: C_4  and  C_5
REMARK    5  A    between atoms: C_5  and  C_6
REMARK    6  A    between atoms: C_5  and  O_8
REMARK    7  A    between atoms: C_6  and  C_7
REMARK    8  A    between atoms: O_8  and  C_9
REMARK    9  A    between atoms: C_9  and  C_11
REMARK   10  A    between atoms: C_12  and  C_13
REMARK   11  A    between atoms: C_16  and  O_17
REMARK   12  A    between atoms: O_17  and  C_18
REMARK                            x       y       z     vdW  Elec       q    Type
REMARK                         _______ _______ _______ _____ _____    ______ ____
ROOT
ATOM      1  C   UNL     1      -4.178  -3.081  -1.767  0.00  0.00    +0.000 C 
ATOM      2  O   UNL     1      -3.732  -3.403  -2.835  0.00  0.00    +0.000 OA
ENDROOT
BRANCH   1   3
ATOM      3  C   UNL     1      -3.538  -3.429  -0.471  0.00  0.00    +0.000 C 
ATOM      4  C   UNL     1      -4.324  -3.515   0.639  0.00  0.00    +0.000 C 
BRANCH   4   5
ATOM      5  C   UNL     1      -3.814  -3.894   1.971  0.00  0.00    +0.000 A 
ATOM      6  C   UNL     1      -4.429  -3.350   3.084  0.00  0.00    +0.000 A 
ATOM      7  C   UNL     1      -4.005  -3.682   4.357  0.00  0.00    +0.000 A 
ATOM      8  C   UNL     1      -2.965  -4.557   4.538  0.00  0.00    +0.000 A 
ATOM      9  C   UNL     1      -2.352  -5.103   3.433  0.00  0.00    +0.000 A 
ATOM     10  C   UNL     1      -2.777  -4.768   2.153  0.00  0.00    +0.000 A 
BRANCH   8  11
ATOM     11  O   UNL     1      -2.592  -4.850   5.805  0.00  0.00    +0.000 OA
ATOM     12  C   UNL     1      -2.697  -6.185   6.284  0.00  0.00    +0.000 C 
ENDBRANCH   8  11
ENDBRANCH   4   5
ENDBRANCH   1   3
BRANCH   1  13
ATOM     13  O   UNL     1      -5.307  -2.347  -1.679  0.00  0.00    +0.000 OA
BRANCH  13  14
ATOM     14  C   UNL     1      -5.349  -1.063  -2.275  0.00  0.00    +0.000 C 
BRANCH  14  15
ATOM     15  C   UNL     1      -6.643  -0.945  -3.078  0.00  0.00    +0.000 C 
ATOM     16  C   UNL     1      -7.080   0.484  -3.350  0.00  0.00    +0.000 C 
ENDBRANCH  14  15
BRANCH  14  17
ATOM     17  C   UNL     1      -5.315  -0.003  -1.202  0.00  0.00    +0.000 C 
BRANCH  17  18
ATOM     18  C   UNL     1      -6.060  -0.374   0.044  0.00  0.00    +0.000 C 
BRANCH  18  20
ATOM     19  C   UNL     1      -7.716   1.318   0.826  0.00  0.00    +0.000 C 
ATOM     20  C   UNL     1      -6.284   0.807   0.941  0.00  0.00    +0.000 C 
ENDBRANCH  18  20
ENDBRANCH  17  18
ENDBRANCH  14  17
ENDBRANCH  13  14
ENDBRANCH   1  13
TORSDOF 9
ENDMDL
