REMARK  Name = shuffle_control_ligand
REMARK  12 active torsions:
REMARK  status: ('A' for Active; 'I' for Inactive)
REMARK    1  A    between atoms: C_1  and  C_2
REMARK    2  A    between atoms: C_2  and  C_3
REMARK    3  A    between atoms: C_3  and  C_4
REMARK    4  A    between atoms: C_4  and  C_5
REMARK    5  A    between atoms: C_5  and  C_6
REMARK    6  A    between atoms: C_5  and  O_8
REMARK    7  A    between atoms: C_6  and  C_7
REMARK    8  A    between atoms: O_8  and  C_9
REMARK    9  A    between atoms: C_9  and  C_11
REMARK   10  A    between atoms: C_12  and  C_13
REMARK   11  A    between atoms: C_16  and  O_17
REMARK   12  A    between atoms: O_17  and  C_18
REMARK                            x       y       z     vdW  Elec       q    Type
REMARK                         _______ _______ _______ _____ _____    ______ ____
ROOT
ATOM      1  C   UNL     1       0.977   0.260   6.250  0.00  0.00    +0.000 C 
ATOM      2  O   UNL     1       0.238   0.479   5.327  0.00  0.00    +0.000 OA
ENDROOT
BRANCH   1   3
ATOM      3  C   UNL     1       2.109   1.134   6.641  0.00  0.00    +0.000 C 
ATOM      4  C   UNL     1       2.393   2.238   5.944  0.00  0.00    +0.000 C 
BRANCH   4   5
ATOM      5  C   UNL     1       3.523   3.146   6.255  0.00  0.00    +0.000 A 
ATOM      6  C   UNL     1       4.247   3.049   7.414  0.00  0.00    +0.000 A 
ATOM      7  C   UNL     1       5.301   3.921   7.666  0.00  0.00    +0.000 A 
ATOM      8  C   UNL     1       5.631   4.893   6.758  0.00  0.00    +0.000 A 
ATOM      9  C   UNL     1       4.907   4.996   5.596  0.00  0.00    +0.000 A 
ATOM     10  C   UNL     1       3.852   4.127   5.344  0.00  0.00    +0.000 A 
BRANCH   8  11
ATOM     11  O   UNL     1       6.657   5.773   6.943  0.00  0.00    +0.000 OA
ATOM     12  C   UNL     1       7.428   5.724   8.128  0.00  0.00    +0.000 C 
ENDBRANCH   8  11
ENDBRANCH   4   5
ENDBRANCH   1   3
BRANCH   1  13
ATOM     13  O   UNL     1       0.838  -0.823   7.021  0.00  0.00    +0.000 OA
BRANCH  13  14
ATOM     14  C   UNL     1      -0.218  -1.733   6.790  0.00  0.00    +0.000 C 
BRANCH  14  15
ATOM     15  C   UNL     1       0.338  -3.137   6.607  0.00  0.00    +0.000 C 
ATOM     16  C   UNL     1       1.607  -3.218   5.829  0.00  0.00    +0.000 C 
ENDBRANCH  14  15
BRANCH  14  17
ATOM     17  C   UNL     1      -1.137  -1.718   7.989  0.00  0.00    +0.000 C 
BRANCH  17  18
ATOM     18  C   UNL     1      -1.511  -0.346   8.449  0.00  0.00    +0.000 C 
BRANCH  18  20
ATOM     19  C   UNL     1      -2.831   1.002  10.081  0.00  0.00    +0.000 C 
ATOM     20  C   UNL     1      -2.502  -0.378   9.583  0.00  0.00    +0.000 C 
ENDBRANCH  18  20
ENDBRANCH  17  18
ENDBRANCH  14  17
ENDBRANCH  13  14
ENDBRANCH   1  13
TORSDOF 9
