MODEL 1
REMARK VINA RESULT:      -3.8      0.000      0.000
REMARK  Name = shuffle_control_ligand
REMARK  12 active torsions:
REMARK  status: ('A' for Active; 'I' for Inactive)
REMARK    1  A    between atoms: C_1  and  C_2
REMARK    2  A    between atoms: C_2  and  C_3
REMARK    3  A    between atoms: C_3  and  C_4
REMARK    4  A    between atoms: C_4  and  C_5
REMARK    5  A    between atoms: C_5  and  C_6
REMARK    6  A    between atoms: C_5  and  O_8
REMARK    7  A    between atoms: C_6  and  C_7
REMARK    8  A    between atoms: O_8  and  C_9
REMARK    9  A    between atoms: C_9  and  C_11
REMARK   10  A    between atoms: C_12  and  C_13
REMARK   11  A    between atoms: C_16  and  O_17
REMARK   12  A    between atoms: O_17  and  C_18
REMARK                            x       y       z     vdW  Elec       q    Type
REMARK                         _______ _______ _______ _____ _____    ______ ____
ROOT
ATOM      1  C   UNL     1      11.594   6.925  -1.317  0.00  0.00    +0.000 C 
ATOM      2  O   UNL     1      12.288   7.726  -0.749  0.00  0.00    +0.000 OA
ENDROOT
BRANCH   1   3
ATOM      3  C   UNL     1      11.942   5.495  -1.498  0.00  0.00    +0.000 C 
ATOM      4  C   UNL     1      11.299   4.544  -0.815  0.00  0.00    +0.000 C 
BRANCH   4   5
ATOM      5  C   UNL     1      11.607   3.097  -0.920  0.00  0.00    +0.000 A 
ATOM      6  C   UNL     1      12.678   2.623  -1.631  0.00  0.00    +0.000 A 
ATOM      7  C   UNL     1      12.932   1.258  -1.703  0.00  0.00    +0.000 A 
ATOM      8  C   UNL     1      12.114   0.364  -1.063  0.00  0.00    +0.000 A 
ATOM      9  C   UNL     1      11.038   0.834  -0.351  0.00  0.00    +0.000 A 
ATOM     10  C   UNL     1      10.781   2.198  -0.280  0.00  0.00    +0.000 A 
BRANCH   8  11
ATOM     11  O   UNL     1      12.314  -0.986  -1.089  0.00  0.00    +0.000 OA
ATOM     12  C   UNL     1      12.071  -1.760   0.069  0.00  0.00    +0.000 C 
ENDBRANCH   8  11
ENDBRANCH   4   5
ENDBRANCH   1   3
BRANCH   1  13
ATOM     13  O   UNL     1      10.418   7.268  -1.853  0.00  0.00    +0.000 OA
BRANCH  13  14
ATOM     14  C   UNL     1       9.520   8.090  -1.136  0.00  0.00    +0.000 C 
BRANCH  14  15
ATOM     15  C   UNL     1       8.409   8.571  -2.058  0.00  0.00    +0.000 C 
ATOM     16  C   UNL     1       8.521   8.117  -3.473  0.00  0.00    +0.000 C 
ENDBRANCH  14  15
BRANCH  14  17
ATOM     17  C   UNL     1       8.914   7.278  -0.015  0.00  0.00    +0.000 C 
BRANCH  17  18
ATOM     18  C   UNL     1       7.936   6.246  -0.474  0.00  0.00    +0.000 C 
BRANCH  18  20
ATOM     19  C   UNL     1       8.758   5.257   1.664  0.00  0.00    +0.000 C 
ATOM     20  C   UNL     1       7.833   5.093   0.490  0.00  0.00    +0.000 C 
ENDBRANCH  18  20
ENDBRANCH  17  18
ENDBRANCH  14  17
ENDBRANCH  13  14
ENDBRANCH   1  13
TORSDOF 9
ENDMDL
MODEL 2
REMARK VINA RESULT:      -3.8      2.014      2.825
REMARK  Name = shuffle_control_ligand
REMARK  12 active torsions:
REMARK  status: ('A' for Active; 'I' for Inactive)
REMARK    1  A    between atoms: C_1  and  C_2
REMARK    2  A    between atoms: C_2  and  C_3
REMARK    3  A    between atoms: C_3  and  C_4
REMARK    4  A    between atoms: C_4  and  C_5
REMARK    5  A    between atoms: C_5  and  C_6
REMARK    6  A    between atoms: C_5  and  O_8
REMARK    7  A    between atoms: C_6  and  C_7
REMARK    8  A    between atoms: O_8  and  C_9
REMARK    9  A    between atoms: C_9  and  C_11
REMARK   10  A    between atoms: C_12  and  C_13
REMARK   11  A    between atoms: C_16  and  O_17
REMARK   12  A    between atoms: O_17  and  C_18
REMARK                            x       y       z     vdW  Elec       q    Type
REMARK                         _______ _______ _______ _____ _____    ______ ____
ROOT
ATOM      1  C   UNL     1      11.139   5.006  -0.501  0.00  0.00    +0.000 C 
ATOM      2  O   UNL     1      11.990   5.679  -1.020  0.00  0.00    +0.000 OA
ENDROOT
BRANCH   1   3
ATOM      3  C   UNL     1      11.068   3.528  -0.595  0.00  0.00    +0.000 C 
ATOM      4  C   UNL     1      10.214   2.835   0.164  0.00  0.00    +0.000 C 
BRANCH   4   5
ATOM      5  C   UNL     1      10.104   1.357   0.147  0.00  0.00    +0.000 A 
ATOM      6  C   UNL     1      10.937   0.565  -0.599  0.00  0.00    +0.000 A 
ATOM      7  C   UNL     1      10.800  -0.819  -0.585  0.00  0.00    +0.000 A 
ATOM      8  C   UNL     1       9.827  -1.413   0.175  0.00  0.00    +0.000 A 
ATOM      9  C   UNL     1       8.987  -0.624   0.922  0.00  0.00    +0.000 A 
ATOM     10  C   UNL     1       9.121   0.759   0.907  0.00  0.00    +0.000 A 
BRANCH   8  11
ATOM     11  O   UNL     1       9.645  -2.764   0.237  0.00  0.00    +0.000 OA
ATOM     12  C   UNL     1       8.479  -3.296   0.834  0.00  0.00    +0.000 C 
ENDBRANCH   8  11
ENDBRANCH   4   5
ENDBRANCH   1   3
BRANCH   1  13
ATOM     13  O   UNL     1      10.156   5.550   0.223  0.00  0.00    +0.000 OA
BRANCH  13  14
ATOM     14  C   UNL     1       9.755   6.886  -0.007  0.00  0.00    +0.000 C 
BRANCH  14  15
ATOM     15  C   UNL     1       8.361   6.912  -0.615  0.00  0.00    +0.000 C 
ATOM     16  C   UNL     1       7.479   5.776  -0.222  0.00  0.00    +0.000 C 
ENDBRANCH  14  15
BRANCH  14  17
ATOM     17  C   UNL     1       9.731   7.616   1.315  0.00  0.00    +0.000 C 
BRANCH  17  18
ATOM     18  C   UNL     1      10.157   6.778   2.478  0.00  0.00    +0.000 C 
BRANCH  18  20
ATOM     19  C   UNL     1       8.547   5.070   3.325  0.00  0.00    +0.000 C 
ATOM     20  C   UNL     1       9.017   6.496   3.421  0.00  0.00    +0.000 C 
ENDBRANCH  18  20
ENDBRANCH  17  18
ENDBRANCH  14  17
ENDBRANCH  13  14
ENDBRANCH   1  13
TORSDOF 9
ENDMDL
MODEL 3
REMARK VINA RESULT:      -3.8      2.260      3.821
REMARK  Name = shuffle_control_ligand
REMARK  12 active torsions:
REMARK  status: ('A' for Active; 'I' for Inactive)
REMARK    1  A    between atoms: C_1  and  C_2
REMARK    2  A    between atoms: C_2  and  C_3
REMARK    3  A    between atoms: C_3  and  C_4
REMARK    4  A    between atoms: C_4  and  C_5
REMARK    5  A    between atoms: C_5  and  C_6
REMARK    6  A    between atoms: C_5  and  O_8
REMARK    7  A    between atoms: C_6  and  C_7
REMARK    8  A    between atoms: O_8  and  C_9
REMARK    9  A    between atoms: C_9  and  C_11
REMARK   10  A    between atoms: C_12  and  C_13
REMARK   11  A    between atoms: C_16  and  O_17
REMARK   12  A    between atoms: O_17  and  C_18
REMARK                            x       y       z     vdW  Elec       q    Type
REMARK                         _______ _______ _______ _____ _____    ______ ____
ROOT
ATOM      1  C   UNL     1      10.889   4.507  -0.023  0.00  0.00    +0.000 C 
ATOM      2  O   UNL     1      11.971   4.799   0.414  0.00  0.00    +0.000 OA
ENDROOT
BRANCH   1   3
ATOM      3  C   UNL     1      10.459   3.124  -0.337  0.00  0.00    +0.000 C 
ATOM      4  C   UNL     1      10.345   2.207   0.628  0.00  0.00    +0.000 C 
BRANCH   4   5
ATOM      5  C   UNL     1       9.949   0.798   0.390  0.00  0.00    +0.000 A 
ATOM      6  C   UNL     1      10.491   0.042  -0.615  0.00  0.00    +0.000 A 
ATOM      7  C   UNL     1      10.092  -1.277  -0.803  0.00  0.00    +0.000 A 
ATOM      8  C   UNL     1       9.147  -1.841   0.014  0.00  0.00    +0.000 A 
ATOM      9  C   UNL     1       8.599  -1.086   1.021  0.00  0.00    +0.000 A 
ATOM     10  C   UNL     1       8.995   0.233   1.209  0.00  0.00    +0.000 A 
BRANCH   8  11
ATOM     11  O   UNL     1       8.719  -3.130  -0.114  0.00  0.00    +0.000 OA
ATOM     12  C   UNL     1       7.664  -3.610   0.697  0.00  0.00    +0.000 C 
ENDBRANCH   8  11
ENDBRANCH   4   5
ENDBRANCH   1   3
BRANCH   1  13
ATOM     13  O   UNL     1       9.958   5.433  -0.272  0.00  0.00    +0.000 OA
BRANCH  13  14
ATOM     14  C   UNL     1       8.716   5.396   0.401  0.00  0.00    +0.000 C 
BRANCH  14  15
ATOM     15  C   UNL     1       8.859   6.005   1.788  0.00  0.00    +0.000 C 
ATOM     16  C   UNL     1       8.621   5.064   2.919  0.00  0.00    +0.000 C 
ENDBRANCH  14  15
BRANCH  14  17
ATOM     17  C   UNL     1       7.714   6.203  -0.392  0.00  0.00    +0.000 C 
BRANCH  17  18
ATOM     18  C   UNL     1       8.334   7.130  -1.386  0.00  0.00    +0.000 C 
BRANCH  18  20
ATOM     19  C   UNL     1       8.059   9.389  -2.409  0.00  0.00    +0.000 C 
ATOM     20  C   UNL     1       7.924   8.562  -1.160  0.00  0.00    +0.000 C 
ENDBRANCH  18  20
ENDBRANCH  17  18
ENDBRANCH  14  17
ENDBRANCH  13  14
ENDBRANCH   1  13
TORSDOF 9
ENDMDL
MODEL 4
REMARK VINA RESULT:      -3.7      2.219      7.156
REMARK  Name = shuffle_control_ligand
REMARK  12 active torsions:
REMARK  status: ('A' for Active; 'I' for Inactive)
REMARK    1  A    between atoms: C_1  and  C_2
REMARK    2  A    between atoms: C_2  and  C_3
REMARK    3  A    between atoms: C_3  and  C_4
REMARK    4  A    between atoms: C_4  and  C_5
REMARK    5  A    between atoms: C_5  and  C_6
REMARK    6  A    between atoms: C_5  and  O_8
REMARK    7  A    between atoms: C_6  and  C_7
REMARK    8  A    between atoms: O_8  and  C_9
REMARK    9  A    between atoms: C_9  and  C_11
REMARK   10  A    between atoms: C_12  and  C_13
REMARK   11  A    between atoms: C_16  and  O_17
REMARK   12  A    between atoms: O_17  and  C_18
REMARK                            x       y       z     vdW  Elec       q    Type
REMARK                         _______ _______ _______ _____ _____    ______ ____
ROOT
ATOM      1  C   UNL     1       9.960   1.702   1.648  0.00  0.00    +0.000 C 
ATOM      2  O   UNL     1       9.570   1.423   2.750  0.00  0.00    +0.000 OA
ENDROOT
BRANCH   1   3
ATOM      3  C   UNL     1       9.405   2.796   0.815  0.00  0.00    +0.000 C 
ATOM      4  C   UNL     1       9.789   4.062   1.005  0.00  0.00    +0.000 C 
BRANCH   4   5
ATOM      5  C   UNL     1       9.261   5.212   0.234  0.00  0.00    +0.000 A 
ATOM      6  C   UNL     1       7.920   5.470   0.125  0.00  0.00    +0.000 A 
ATOM      7  C   UNL     1       7.466   6.562  -0.608  0.00  0.00    +0.000 A 
ATOM      8  C   UNL     1       8.354   7.396  -1.234  0.00  0.00    +0.000 A 
ATOM      9  C   UNL     1       9.699   7.141  -1.130  0.00  0.00    +0.000 A 
ATOM     10  C   UNL     1      10.154   6.049  -0.400  0.00  0.00    +0.000 A 
BRANCH   8  11
ATOM     11  O   UNL     1       7.973   8.486  -1.961  0.00  0.00    +0.000 OA
ATOM     12  C   UNL     1       8.279   8.561  -3.340  0.00  0.00    +0.000 C 
ENDBRANCH   8  11
ENDBRANCH   4   5
ENDBRANCH   1   3
BRANCH   1  13
ATOM     13  O   UNL     1      10.954   1.026   1.061  0.00  0.00    +0.000 OA
BRANCH  13  14
ATOM     14  C   UNL     1      11.053   0.982  -0.347  0.00  0.00    +0.000 C 
BRANCH  14  15
ATOM     15  C   UNL     1      12.406   1.520  -0.789  0.00  0.00    +0.000 C 
ATOM     16  C   UNL     1      12.376   2.877  -1.406  0.00  0.00    +0.000 C 
ENDBRANCH  14  15
BRANCH  14  17
ATOM     17  C   UNL     1      10.923  -0.455  -0.794  0.00  0.00    +0.000 C 
BRANCH  17  18
ATOM     18  C   UNL     1       9.511  -0.936  -0.885  0.00  0.00    +0.000 C 
BRANCH  18  20
ATOM     19  C   UNL     1       8.350  -1.585   1.226  0.00  0.00    +0.000 C 
ATOM     20  C   UNL     1       9.226  -2.045   0.093  0.00  0.00    +0.000 C 
ENDBRANCH  18  20
ENDBRANCH  17  18
ENDBRANCH  14  17
ENDBRANCH  13  14
ENDBRANCH   1  13
TORSDOF 9
ENDMDL
MODEL 5
REMARK VINA RESULT:      -3.7      2.815      6.869
REMARK  Name = shuffle_control_ligand
REMARK  12 active torsions:
REMARK  status: ('A' for Active; 'I' for Inactive)
REMARK    1  A    between atoms: C_1  and  C_2
REMARK    2  A    between atoms: C_2  and  C_3
REMARK    3  A    between atoms: C_3  and  C_4
REMARK    4  A    between atoms: C_4  and  C_5
REMARK    5  A    between atoms: C_5  and  C_6
REMARK    6  A    between atoms: C_5  and  O_8
REMARK    7  A    between atoms: C_6  and  C_7
REMARK    8  A    between atoms: O_8  and  C_9
REMARK    9  A    between atoms: C_9  and  C_11
REMARK   10  A    between atoms: C_12  and  C_13
REMARK   11  A    between atoms: C_16  and  O_17
REMARK   12  A    between atoms: O_17  and  C_18
REMARK                            x       y       z     vdW  Elec       q    Type
REMARK                         _______ _______ _______ _____ _____    ______ ____
ROOT
ATOM      1  C   UNL     1       8.714   4.631   3.319  0.00  0.00    +0.000 C 
ATOM      2  O   UNL     1       7.790   4.925   4.030  0.00  0.00    +0.000 OA
ENDROOT
BRANCH   1   3
ATOM      3  C   UNL     1       9.190   5.454   2.181  0.00  0.00    +0.000 C 
ATOM      4  C   UNL     1       8.445   5.594   1.081  0.00  0.00    +0.000 C 
BRANCH   4   5
ATOM      5  C   UNL     1       8.863   6.377  -0.107  0.00  0.00    +0.000 A 
ATOM      6  C   UNL     1      10.174   6.496  -0.486  0.00  0.00    +0.000 A 
ATOM      7  C   UNL     1      10.523   7.239  -1.609  0.00  0.00    +0.000 A 
ATOM      8  C   UNL     1       9.559   7.866  -2.354  0.00  0.00    +0.000 A 
ATOM      9  C   UNL     1       8.243   7.752  -1.977  0.00  0.00    +0.000 A 
ATOM     10  C   UNL     1       7.894   7.012  -0.854  0.00  0.00    +0.000 A 
BRANCH   8  11
ATOM     11  O   UNL     1       9.835   8.603  -3.468  0.00  0.00    +0.000 OA
ATOM     12  C   UNL     1       9.806  10.016  -3.409  0.00  0.00    +0.000 C 
ENDBRANCH   8  11
ENDBRANCH   4   5
ENDBRANCH   1   3
BRANCH   1  13
ATOM     13  O   UNL     1       9.408   3.502   3.497  0.00  0.00    +0.000 OA
BRANCH  13  14
ATOM     14  C   UNL     1      10.360   3.090   2.537  0.00  0.00    +0.000 C 
BRANCH  14  15
ATOM     15  C   UNL     1      11.708   2.870   3.206  0.00  0.00    +0.000 C 
ATOM     16  C   UNL     1      12.754   3.876   2.866  0.00  0.00    +0.000 C 
ENDBRANCH  14  15
BRANCH  14  17
ATOM     17  C   UNL     1       9.894   1.790   1.924  0.00  0.00    +0.000 C 
BRANCH  17  18
ATOM     18  C   UNL     1       9.860   1.802   0.430  0.00  0.00    +0.000 C 
BRANCH  18  20
ATOM     19  C   UNL     1      11.805   2.472  -0.981  0.00  0.00    +0.000 C 
ATOM     20  C   UNL     1      10.649   2.948  -0.146  0.00  0.00    +0.000 C 
ENDBRANCH  18  20
ENDBRANCH  17  18
ENDBRANCH  14  17
ENDBRANCH  13  14
ENDBRANCH   1  13
TORSDOF 9
ENDMDL
MODEL 6
REMARK VINA RESULT:      -3.6      1.948      3.399
REMARK  Name = shuffle_control_ligand
REMARK  12 active torsions:
REMARK  status: ('A' for Active; 'I' for Inactive)
REMARK    1  A    between atoms: C_1  and  C_2
REMARK    2  A    between atoms: C_2  and  C_3
REMARK    3  A    between atoms: C_3  and  C_4
REMARK    4  A    between atoms: C_4  and  C_5
REMARK    5  A    between atoms: C_5  and  C_6
REMARK    6  A    between atoms: C_5  and  O_8
REMARK    7  A    between atoms: C_6  and  C_7
REMARK    8  A    between atoms: O_8  and  C_9
REMARK    9  A    between atoms: C_9  and  C_11
REMARK   10  A    between atoms: C_12  and  C_13
REMARK   11  A    between atoms: C_16  and  O_17
REMARK   12  A    between atoms: O_17  and  C_18
REMARK                            x       y       z     vdW  Elec       q    Type
REMARK                         _______ _______ _______ _____ _____    ______ ____
ROOT
ATOM      1  C   UNL     1      11.472   4.746  -0.690  0.00  0.00    +0.000 C 
ATOM      2  O   UNL     1      12.255   5.316  -1.403  0.00  0.00    +0.000 OA
ENDROOT
BRANCH   1   3
ATOM      3  C   UNL     1      11.227   3.283  -0.717  0.00  0.00    +0.000 C 
ATOM      4  C   UNL     1      10.334   2.724   0.105  0.00  0.00    +0.000 C 
BRANCH   4   5
ATOM      5  C   UNL     1      10.054   1.270   0.157  0.00  0.00    +0.000 A 
ATOM      6  C   UNL     1       9.115   0.731   0.997  0.00  0.00    +0.000 A 
ATOM      7  C   UNL     1       8.882  -0.640   1.013  0.00  0.00    +0.000 A 
ATOM      8  C   UNL     1       9.591  -1.475   0.189  0.00  0.00    +0.000 A 
ATOM      9  C   UNL     1      10.535  -0.941  -0.653  0.00  0.00    +0.000 A 
ATOM     10  C   UNL     1      10.770   0.429  -0.668  0.00  0.00    +0.000 A 
BRANCH   8  11
ATOM     11  O   UNL     1       9.404  -2.826   0.153  0.00  0.00    +0.000 OA
ATOM     12  C   UNL     1       8.827  -3.432  -0.988  0.00  0.00    +0.000 C 
ENDBRANCH   8  11
ENDBRANCH   4   5
ENDBRANCH   1   3
BRANCH   1  13
ATOM     13  O   UNL     1      10.733   5.401   0.210  0.00  0.00    +0.000 OA
BRANCH  13  14
ATOM     14  C   UNL     1       9.670   6.233  -0.208  0.00  0.00    +0.000 C 
BRANCH  14  15
ATOM     15  C   UNL     1       8.397   5.860   0.536  0.00  0.00    +0.000 C 
ATOM     16  C   UNL     1       7.211   5.605  -0.331  0.00  0.00    +0.000 C 
ENDBRANCH  14  15
BRANCH  14  17
ATOM     17  C   UNL     1      10.026   7.666   0.111  0.00  0.00    +0.000 C 
BRANCH  17  18
ATOM     18  C   UNL     1      10.002   8.575  -1.075  0.00  0.00    +0.000 C 
BRANCH  18  20
ATOM     19  C   UNL     1       8.354   8.332  -2.932  0.00  0.00    +0.000 C 
ATOM     20  C   UNL     1       9.648   7.844  -2.344  0.00  0.00    +0.000 C 
ENDBRANCH  18  20
ENDBRANCH  17  18
ENDBRANCH  14  17
ENDBRANCH  13  14
ENDBRANCH   1  13
TORSDOF 9
ENDMDL
MODEL 7
REMARK VINA RESULT:      -3.5      2.210      3.418
REMARK  Name = shuffle_control_ligand
REMARK  12 active torsions:
REMARK  status: ('A' for Active; 'I' for Inactive)
REMARK    1  A    between atoms: C_1  and  C_2
REMARK    2  A    between atoms: C_2  and  C_3
REMARK    3  A    between atoms: C_3  and  C_4
REMARK    4  A    between atoms: C_4  and  C_5
REMARK    5  A    between atoms: C_5  and  C_6
REMARK    6  A    between atoms: C_5  and  O_8
REMARK    7  A    between atoms: C_6  and  C_7
REMARK    8  A    between atoms: O_8  and  C_9
REMARK    9  A    between atoms: C_9  and  C_11
REMARK   10  A    between atoms: C_12  and  C_13
REMARK   11  A    between atoms: C_16  and  O_17
REMARK   12  A    between atoms: O_17  and  C_18
REMARK                            x       y       z     vdW  Elec       q    Type
REMARK                         _______ _______ _______ _____ _____    ______ ____
ROOT
ATOM      1  C   UNL     1      11.714   5.039  -0.780  0.00  0.00    +0.000 C 
ATOM      2  O   UNL     1      12.562   5.129  -1.627  0.00  0.00    +0.000 OA
ENDROOT
BRANCH   1   3
ATOM      3  C   UNL     1      10.917   3.816  -0.521  0.00  0.00    +0.000 C 
ATOM      4  C   UNL     1      11.492   2.610  -0.533  0.00  0.00    +0.000 C 
BRANCH   4   5
ATOM      5  C   UNL     1      10.759   1.340  -0.311  0.00  0.00    +0.000 A 
ATOM      6  C   UNL     1       9.697   1.245   0.548  0.00  0.00    +0.000 A 
ATOM      7  C   UNL     1       9.036   0.034   0.726  0.00  0.00    +0.000 A 
ATOM      8  C   UNL     1       9.439  -1.084   0.045  0.00  0.00    +0.000 A 
ATOM      9  C   UNL     1      10.505  -0.995  -0.816  0.00  0.00    +0.000 A 
ATOM     10  C   UNL     1      11.168   0.214  -0.993  0.00  0.00    +0.000 A 
BRANCH   8  11
ATOM     11  O   UNL     1       8.829  -2.298   0.170  0.00  0.00    +0.000 OA
ATOM     12  C   UNL     1       7.912  -2.525   1.223  0.00  0.00    +0.000 C 
ENDBRANCH   8  11
ENDBRANCH   4   5
ENDBRANCH   1   3
BRANCH   1  13
ATOM     13  O   UNL     1      11.406   6.065   0.020  0.00  0.00    +0.000 OA
BRANCH  13  14
ATOM     14  C   UNL     1      10.729   5.841   1.239  0.00  0.00    +0.000 C 
BRANCH  14  15
ATOM     15  C   UNL     1      11.509   6.461   2.388  0.00  0.00    +0.000 C 
ATOM     16  C   UNL     1      10.829   7.596   3.075  0.00  0.00    +0.000 C 
ENDBRANCH  14  15
BRANCH  14  17
ATOM     17  C   UNL     1       9.367   6.491   1.160  0.00  0.00    +0.000 C 
BRANCH  17  18
ATOM     18  C   UNL     1       8.248   5.528   0.930  0.00  0.00    +0.000 C 
BRANCH  18  20
ATOM     19  C   UNL     1       8.029   7.041  -1.041  0.00  0.00    +0.000 C 
ATOM     20  C   UNL     1       7.447   5.870  -0.299  0.00  0.00    +0.000 C 
ENDBRANCH  18  20
ENDBRANCH  17  18
ENDBRANCH  14  17
ENDBRANCH  13  14
ENDBRANCH   1  13
TORSDOF 9
ENDMDL
MODEL 8
REMARK VINA RESULT:      -3.4      2.521      7.462
REMARK  Name = shuffle_control_ligand
REMARK  12 active torsions:
REMARK  status: ('A' for Active; 'I' for Inactive)
REMARK    1  A    between atoms: C_1  and  C_2
REMARK    2  A    between atoms: C_2  and  C_3
REMARK    3  A    between atoms: C_3  and  C_4
REMARK    4  A    between atoms: C_4  and  C_5
REMARK    5  A    between atoms: C_5  and  C_6
REMARK    6  A    between atoms: C_5  and  O_8
REMARK    7  A    between atoms: C_6  and  C_7
REMARK    8  A    between atoms: O_8  and  C_9
REMARK    9  A    between atoms: C_9  and  C_11
REMARK   10  A    between atoms: C_12  and  C_13
REMARK   11  A    between atoms: C_16  and  O_17
REMARK   12  A    between atoms: O_17  and  C_18
REMARK                            x       y       z     vdW  Elec       q    Type
REMARK                         _______ _______ _______ _____ _____    ______ ____
ROOT
ATOM      1  C   UNL     1       9.561   3.815   2.132  0.00  0.00    +0.000 C 
ATOM      2  O   UNL     1       9.247   3.622   3.276  0.00  0.00    +0.000 OA
ENDROOT
BRANCH   1   3
ATOM      3  C   UNL     1       9.020   4.908   1.288  0.00  0.00    +0.000 C 
ATOM      4  C   UNL     1       9.684   6.059   1.152  0.00  0.00    +0.000 C 
BRANCH   4   5
ATOM      5  C   UNL     1       9.195   7.207   0.350  0.00  0.00    +0.000 A 
ATOM      6  C   UNL     1       9.597   8.495   0.589  0.00  0.00    +0.000 A 
ATOM      7  C   UNL     1       9.115   9.543  -0.188  0.00  0.00    +0.000 A 
ATOM      8  C   UNL     1       8.228   9.303  -1.205  0.00  0.00    +0.000 A 
ATOM      9  C   UNL     1       7.820   8.014  -1.447  0.00  0.00    +0.000 A 
ATOM     10  C   UNL     1       8.299   6.966  -0.670  0.00  0.00    +0.000 A 
BRANCH   8  11
ATOM     11  O   UNL     1       7.725  10.285  -2.007  0.00  0.00    +0.000 OA
ATOM     12  C   UNL     1       8.597  11.206  -2.633  0.00  0.00    +0.000 C 
ENDBRANCH   8  11
ENDBRANCH   4   5
ENDBRANCH   1   3
BRANCH   1  13
ATOM     13  O   UNL     1      10.448   3.036   1.504  0.00  0.00    +0.000 OA
BRANCH  13  14
ATOM     14  C   UNL     1      10.118   2.428   0.272  0.00  0.00    +0.000 C 
BRANCH  14  15
ATOM     15  C   UNL     1      11.306   2.500  -0.676  0.00  0.00    +0.000 C 
ATOM     16  C   UNL     1      11.801   3.875  -0.967  0.00  0.00    +0.000 C 
ENDBRANCH  14  15
BRANCH  14  17
ATOM     17  C   UNL     1       9.776   0.979   0.527  0.00  0.00    +0.000 C 
BRANCH  17  18
ATOM     18  C   UNL     1      10.374   0.032  -0.463  0.00  0.00    +0.000 C 
BRANCH  18  20
ATOM     19  C   UNL     1       9.694  -1.721  -2.102  0.00  0.00    +0.000 C 
ATOM     20  C   UNL     1       9.481  -1.152  -0.727  0.00  0.00    +0.000 C 
ENDBRANCH  18  20
ENDBRANCH  17  18
ENDBRANCH  14  17
ENDBRANCH  13  14
ENDBRANCH   1  13
TORSDOF 9
ENDMDL
MODEL 9
REMARK VINA RESULT:      -3.4      2.276      7.274
REMARK  Name = shuffle_control_ligand
REMARK  12 active torsions:
REMARK  status: ('A' for Active; 'I' for Inactive)
REMARK    1  A    between atoms: C_1  and  C_2
REMARK    2  A    between atoms: C_2  and  C_3
REMARK    3  A    between atoms: C_3  and  C_4
REMARK    4  A    between atoms: C_4  and  C_5
REMARK    5  A    between atoms: C_5  and  C_6
REMARK    6  A    between atoms: C_5  and  O_8
REMARK    7  A    between atoms: C_6  and  C_7
REMARK    8  A    between atoms: O_8  and  C_9
REMARK    9  A    between atoms: C_9  and  C_11
REMARK   10  A    between atoms: C_12  and  C_13
REMARK   11  A    between atoms: C_16  and  O_17
REMARK   12  A    between atoms: O_17  and  C_18
REMARK                            x       y       z     vdW  Elec       q    Type
REMARK                         _______ _______ _______ _____ _____    ______ ____
ROOT
ATOM      1  C   UNL     1      11.976  -0.205  -0.646  0.00  0.00    +0.000 C 
ATOM      2  O   UNL     1      12.959  -0.454   0.000  0.00  0.00    +0.000 OA
ENDROOT
BRANCH   1   3
ATOM      3  C   UNL     1      11.413   1.155  -0.822  0.00  0.00    +0.000 C 
ATOM      4  C   UNL     1      11.070   1.896   0.236  0.00  0.00    +0.000 C 
BRANCH   4   5
ATOM      5  C   UNL     1      10.476   3.251   0.141  0.00  0.00    +0.000 A 
ATOM      6  C   UNL     1       9.226   3.542   0.620  0.00  0.00    +0.000 A 
ATOM      7  C   UNL     1       8.707   4.828   0.512  0.00  0.00    +0.000 A 
ATOM      8  C   UNL     1       9.439   5.825  -0.079  0.00  0.00    +0.000 A 
ATOM      9  C   UNL     1      10.691   5.538  -0.563  0.00  0.00    +0.000 A 
ATOM     10  C   UNL     1      11.210   4.253  -0.458  0.00  0.00    +0.000 A 
BRANCH   8  11
ATOM     11  O   UNL     1       8.990   7.106  -0.209  0.00  0.00    +0.000 OA
ATOM     12  C   UNL     1       7.983   7.412  -1.155  0.00  0.00    +0.000 C 
ENDBRANCH   8  11
ENDBRANCH   4   5
ENDBRANCH   1   3
BRANCH   1  13
ATOM     13  O   UNL     1      11.286  -1.162  -1.275  0.00  0.00    +0.000 OA
BRANCH  13  14
ATOM     14  C   UNL     1       9.875  -1.103  -1.333  0.00  0.00    +0.000 C 
BRANCH  14  15
ATOM     15  C   UNL     1       9.374  -1.876  -2.544  0.00  0.00    +0.000 C 
ATOM     16  C   UNL     1       8.797  -3.217  -2.244  0.00  0.00    +0.000 C 
ENDBRANCH  14  15
BRANCH  14  17
ATOM     17  C   UNL     1       9.315  -1.733  -0.079  0.00  0.00    +0.000 C 
BRANCH  17  18
ATOM     18  C   UNL     1       8.603  -0.771   0.816  0.00  0.00    +0.000 C 
BRANCH  18  20
ATOM     19  C   UNL     1      10.276  -0.723   2.665  0.00  0.00    +0.000 C 
ATOM     20  C   UNL     1       8.862  -1.052   2.273  0.00  0.00    +0.000 C 
ENDBRANCH  18  20
ENDBRANCH  17  18
ENDBRANCH  14  17
ENDBRANCH  13  14
ENDBRANCH   1  13
TORSDOF 9
ENDMDL
