REMARK  Name = bg33_1_ligand
REMARK  12 active torsions:
REMARK  status: ('A' for Active; 'I' for Inactive)
REMARK    1  A    between atoms: C_1  and  C_2
REMARK    2  A    between atoms: C_2  and  C_3
REMARK    3  A    between atoms: C_3  and  C_4
REMARK    4  A    between atoms: C_4  and  C_5
REMARK    5  A    between atoms: C_5  and  C_6
REMARK    6  A    between atoms: C_5  and  O_8
REMARK    7  A    between atoms: C_6  and  C_7
REMARK    8  A    between atoms: O_8  and  C_9
REMARK    9  A    between atoms: C_9  and  C_11
REMARK   10  A    between atoms: C_12  and  C_13
REMARK   11  A    between atoms: C_16  and  O_17
REMARK   12  A    between atoms: O_17  and  C_18
REMARK                            x       y       z     vdW  Elec       q    Type
REMARK                         _______ _______ _______ _____ _____    ______ ____
ROOT
ATOM      1  C   UNL     1       0.010   1.434  -5.851  0.00  0.00    +0.000 C 
ATOM      2  O   UNL     1       1.114   1.306  -5.394  0.00  0.00    +0.000 OA
ENDROOT
BRANCH   1   3
ATOM      3  C   UNL     1      -0.470   2.698  -6.244  0.00  0.00    +0.000 C 
ATOM      4  C   UNL     1      -0.142   3.694  -5.550  0.00  0.00    +0.000 C 
BRANCH   4   5
ATOM      5  C   UNL     1      -0.653   4.963  -5.717  0.00  0.00    +0.000 A 
ATOM      6  C   UNL     1      -0.560   5.607  -6.888  0.00  0.00    +0.000 A 
ATOM      7  C   UNL     1      -1.056   6.857  -7.069  0.00  0.00    +0.000 A 
ATOM      8  C   UNL     1      -1.696   7.431  -6.011  0.00  0.00    +0.000 A 
ATOM      9  C   UNL     1      -1.826   6.836  -4.842  0.00  0.00    +0.000 A 
ATOM     10  C   UNL     1      -1.280   5.608  -4.686  0.00  0.00    +0.000 A 
BRANCH   8  11
ATOM     11  O   UNL     1      -2.192   8.641  -6.111  0.00  0.00    +0.000 OA
ATOM     12  C   UNL     1      -3.550   8.715  -5.841  0.00  0.00    +0.000 C 
ENDBRANCH   8  11
ENDBRANCH   4   5
ENDBRANCH   1   3
BRANCH   1  13
ATOM     13  O   UNL     1      -0.753   0.404  -5.992  0.00  0.00    +0.000 OA
BRANCH  13  14
ATOM     14  C   UNL     1      -0.240  -0.643  -5.513  0.00  0.00    +0.000 C 
BRANCH  14  15
ATOM     15  C   UNL     1      -0.092  -0.571  -4.031  0.00  0.00    +0.000 C 
ATOM     16  C   UNL     1      -1.313  -0.369  -3.350  0.00  0.00    +0.000 C 
ENDBRANCH  14  15
BRANCH  14  17
ATOM     17  C   UNL     1      -0.686  -1.848  -6.077  0.00  0.00    +0.000 C 
BRANCH  17  18
ATOM     18  C   UNL     1      -2.036  -1.812  -6.512  0.00  0.00    +0.000 C 
BRANCH  18  20
ATOM     19  C   UNL     1      -1.679  -2.474  -8.819  0.00  0.00    +0.000 C 
ATOM     20  C   UNL     1      -2.101  -2.924  -7.439  0.00  0.00    +0.000 C 
ENDBRANCH  18  20
ENDBRANCH  17  18
ENDBRANCH  14  17
ENDBRANCH  13  14
ENDBRANCH   1  13
TORSDOF 9
