MODEL 1
REMARK VINA RESULT:      -3.6      0.000      0.000
REMARK  Name = bg33_1_ligand
REMARK  12 active torsions:
REMARK  status: ('A' for Active; 'I' for Inactive)
REMARK    1  A    between atoms: C_1  and  C_2
REMARK    2  A    between atoms: C_2  and  C_3
REMARK    3  A    between atoms: C_3  and  C_4
REMARK    4  A    between atoms: C_4  and  C_5
REMARK    5  A    between atoms: C_5  and  C_6
REMARK    6  A    between atoms: C_5  and  O_8
REMARK    7  A    between atoms: C_6  and  C_7
REMARK    8  A    between atoms: O_8  and  C_9
REMARK    9  A    between atoms: C_9  and  C_11
REMARK   10  A    between atoms: C_12  and  C_13
REMARK   11  A    between atoms: C_16  and  O_17
REMARK   12  A    between atoms: O_17  and  C_18
REMARK                            x       y       z     vdW  Elec       q    Type
REMARK                         _______ _______ _______ _____ _____    ______ ____
ROOT
ATOM      1  C   UNL     1      -5.639   4.176  -2.805  0.00  0.00    +0.000 C 
ATOM      2  O   UNL     1      -5.187   4.185  -3.918  0.00  0.00    +0.000 OA
ENDROOT
BRANCH   1   3
ATOM      3  C   UNL     1      -5.487   3.052  -1.970  0.00  0.00    +0.000 C 
ATOM      4  C   UNL     1      -5.846   3.159  -0.769  0.00  0.00    +0.000 C 
BRANCH   4   5
ATOM      5  C   UNL     1      -5.619   2.205   0.200  0.00  0.00    +0.000 A 
ATOM      6  C   UNL     1      -6.476   2.018   1.212  0.00  0.00    +0.000 A 
ATOM      7  C   UNL     1      -6.268   1.085   2.175  0.00  0.00    +0.000 A 
ATOM      8  C   UNL     1      -5.156   0.305   2.055  0.00  0.00    +0.000 A 
ATOM      9  C   UNL     1      -4.288   0.440   1.072  0.00  0.00    +0.000 A 
ATOM     10  C   UNL     1      -4.506   1.410   0.155  0.00  0.00    +0.000 A 
BRANCH   8  11
ATOM     11  O   UNL     1      -4.886  -0.611   2.954  0.00  0.00    +0.000 OA
ATOM     12  C   UNL     1      -3.532  -0.870   3.101  0.00  0.00    +0.000 C 
ENDBRANCH   8  11
ENDBRANCH   4   5
ENDBRANCH   1   3
BRANCH   1  13
ATOM     13  O   UNL     1      -6.272   5.206  -2.357  0.00  0.00    +0.000 OA
BRANCH  13  14
ATOM     14  C   UNL     1      -7.109   5.653  -3.186  0.00  0.00    +0.000 C 
BRANCH  14  15
ATOM     15  C   UNL     1      -8.374   4.863  -3.191  0.00  0.00    +0.000 C 
ATOM     16  C   UNL     1      -9.039   4.867  -4.437  0.00  0.00    +0.000 C 
ENDBRANCH  14  15
BRANCH  14  17
ATOM     17  C   UNL     1      -7.201   7.051  -3.260  0.00  0.00    +0.000 C 
BRANCH  17  18
ATOM     18  C   UNL     1      -6.011   7.724  -2.881  0.00  0.00    +0.000 C 
BRANCH  18  20
ATOM     19  C   UNL     1      -4.023   7.521  -4.257  0.00  0.00    +0.000 C 
ATOM     20  C   UNL     1      -5.425   8.078  -4.158  0.00  0.00    +0.000 C 
ENDBRANCH  18  20
ENDBRANCH  17  18
ENDBRANCH  14  17
ENDBRANCH  13  14
ENDBRANCH   1  13
TORSDOF 9
ENDMDL
MODEL 2
REMARK VINA RESULT:      -3.6      2.044      7.298
REMARK  Name = bg33_1_ligand
REMARK  12 active torsions:
REMARK  status: ('A' for Active; 'I' for Inactive)
REMARK    1  A    between atoms: C_1  and  C_2
REMARK    2  A    between atoms: C_2  and  C_3
REMARK    3  A    between atoms: C_3  and  C_4
REMARK    4  A    between atoms: C_4  and  C_5
REMARK    5  A    between atoms: C_5  and  C_6
REMARK    6  A    between atoms: C_5  and  O_8
REMARK    7  A    between atoms: C_6  and  C_7
REMARK    8  A    between atoms: O_8  and  C_9
REMARK    9  A    between atoms: C_9  and  C_11
REMARK   10  A    between atoms: C_12  and  C_13
REMARK   11  A    between atoms: C_16  and  O_17
REMARK   12  A    between atoms: O_17  and  C_18
REMARK                            x       y       z     vdW  Elec       q    Type
REMARK                         _______ _______ _______ _____ _____    ______ ____
ROOT
ATOM      1  C   UNL     1      -5.285   1.836   0.048  0.00  0.00    +0.000 C 
ATOM      2  O   UNL     1      -4.088   1.791   0.141  0.00  0.00    +0.000 OA
ENDROOT
BRANCH   1   3
ATOM      3  C   UNL     1      -5.932   2.990  -0.434  0.00  0.00    +0.000 C 
ATOM      4  C   UNL     1      -6.032   3.132  -1.680  0.00  0.00    +0.000 C 
BRANCH   4   5
ATOM      5  C   UNL     1      -6.498   4.271  -2.300  0.00  0.00    +0.000 A 
ATOM      6  C   UNL     1      -5.729   5.361  -2.432  0.00  0.00    +0.000 A 
ATOM      7  C   UNL     1      -6.173   6.491  -3.037  0.00  0.00    +0.000 A 
ATOM      8  C   UNL     1      -7.436   6.467  -3.549  0.00  0.00    +0.000 A 
ATOM      9  C   UNL     1      -8.228   5.418  -3.457  0.00  0.00    +0.000 A 
ATOM     10  C   UNL     1      -7.767   4.324  -2.808  0.00  0.00    +0.000 A 
BRANCH   8  11
ATOM     11  O   UNL     1      -7.934   7.527  -4.140  0.00  0.00    +0.000 OA
ATOM     12  C   UNL     1      -7.322   7.838  -5.344  0.00  0.00    +0.000 C 
ENDBRANCH   8  11
ENDBRANCH   4   5
ENDBRANCH   1   3
BRANCH   1  13
ATOM     13  O   UNL     1      -5.997   0.815   0.387  0.00  0.00    +0.000 OA
BRANCH  13  14
ATOM     14  C   UNL     1      -6.917   1.119   1.194  0.00  0.00    +0.000 C 
BRANCH  14  15
ATOM     15  C   UNL     1      -8.189   0.400   0.896  0.00  0.00    +0.000 C 
ATOM     16  C   UNL     1      -8.997   1.055  -0.059  0.00  0.00    +0.000 C 
ENDBRANCH  14  15
BRANCH  14  17
ATOM     17  C   UNL     1      -6.526   1.246   2.536  0.00  0.00    +0.000 C 
BRANCH  17  18
ATOM     18  C   UNL     1      -7.610   1.434   3.433  0.00  0.00    +0.000 C 
BRANCH  18  20
ATOM     19  C   UNL     1      -7.261   3.818   3.720  0.00  0.00    +0.000 C 
ATOM     20  C   UNL     1      -7.102   2.447   4.336  0.00  0.00    +0.000 C 
ENDBRANCH  18  20
ENDBRANCH  17  18
ENDBRANCH  14  17
ENDBRANCH  13  14
ENDBRANCH   1  13
TORSDOF 9
ENDMDL
MODEL 3
REMARK VINA RESULT:      -3.6      1.391      1.842
REMARK  Name = bg33_1_ligand
REMARK  12 active torsions:
REMARK  status: ('A' for Active; 'I' for Inactive)
REMARK    1  A    between atoms: C_1  and  C_2
REMARK    2  A    between atoms: C_2  and  C_3
REMARK    3  A    between atoms: C_3  and  C_4
REMARK    4  A    between atoms: C_4  and  C_5
REMARK    5  A    between atoms: C_5  and  C_6
REMARK    6  A    between atoms: C_5  and  O_8
REMARK    7  A    between atoms: C_6  and  C_7
REMARK    8  A    between atoms: O_8  and  C_9
REMARK    9  A    between atoms: C_9  and  C_11
REMARK   10  A    between atoms: C_12  and  C_13
REMARK   11  A    between atoms: C_16  and  O_17
REMARK   12  A    between atoms: O_17  and  C_18
REMARK                            x       y       z     vdW  Elec       q    Type
REMARK                         _______ _______ _______ _____ _____    ______ ____
ROOT
ATOM      1  C   UNL     1      -7.417   4.800  -3.466  0.00  0.00    +0.000 C 
ATOM      2  O   UNL     1      -7.052   4.494  -4.570  0.00  0.00    +0.000 OA
ENDROOT
BRANCH   1   3
ATOM      3  C   UNL     1      -7.210   3.941  -2.370  0.00  0.00    +0.000 C 
ATOM      4  C   UNL     1      -6.024   3.654  -2.063  0.00  0.00    +0.000 C 
BRANCH   4   5
ATOM      5  C   UNL     1      -5.669   2.714  -1.120  0.00  0.00    +0.000 A 
ATOM      6  C   UNL     1      -6.186   2.731   0.116  0.00  0.00    +0.000 A 
ATOM      7  C   UNL     1      -5.847   1.814   1.056  0.00  0.00    +0.000 A 
ATOM      8  C   UNL     1      -4.974   0.835   0.684  0.00  0.00    +0.000 A 
ATOM      9  C   UNL     1      -4.446   0.765  -0.522  0.00  0.00    +0.000 A 
ATOM     10  C   UNL     1      -4.775   1.723  -1.420  0.00  0.00    +0.000 A 
BRANCH   8  11
ATOM     11  O   UNL     1      -4.593  -0.079   1.544  0.00  0.00    +0.000 OA
ATOM     12  C   UNL     1      -3.332  -0.596   1.292  0.00  0.00    +0.000 C 
ENDBRANCH   8  11
ENDBRANCH   4   5
ENDBRANCH   1   3
BRANCH   1  13
ATOM     13  O   UNL     1      -8.003   5.932  -3.271  0.00  0.00    +0.000 OA
BRANCH  13  14
ATOM     14  C   UNL     1      -7.368   6.896  -3.779  0.00  0.00    +0.000 C 
BRANCH  14  15
ATOM     15  C   UNL     1      -8.253   7.802  -4.566  0.00  0.00    +0.000 C 
ATOM     16  C   UNL     1      -9.595   7.804  -4.125  0.00  0.00    +0.000 C 
ENDBRANCH  14  15
BRANCH  14  17
ATOM     17  C   UNL     1      -6.389   7.475  -2.957  0.00  0.00    +0.000 C 
BRANCH  17  18
ATOM     18  C   UNL     1      -5.177   7.773  -3.633  0.00  0.00    +0.000 C 
BRANCH  18  20
ATOM     19  C   UNL     1      -3.801   5.881  -4.276  0.00  0.00    +0.000 C 
ATOM     20  C   UNL     1      -4.276   6.752  -3.136  0.00  0.00    +0.000 C 
ENDBRANCH  18  20
ENDBRANCH  17  18
ENDBRANCH  14  17
ENDBRANCH  13  14
ENDBRANCH   1  13
TORSDOF 9
ENDMDL
MODEL 4
REMARK VINA RESULT:      -3.5      1.971      7.542
REMARK  Name = bg33_1_ligand
REMARK  12 active torsions:
REMARK  status: ('A' for Active; 'I' for Inactive)
REMARK    1  A    between atoms: C_1  and  C_2
REMARK    2  A    between atoms: C_2  and  C_3
REMARK    3  A    between atoms: C_3  and  C_4
REMARK    4  A    between atoms: C_4  and  C_5
REMARK    5  A    between atoms: C_5  and  C_6
REMARK    6  A    between atoms: C_5  and  O_8
REMARK    7  A    between atoms: C_6  and  C_7
REMARK    8  A    between atoms: O_8  and  C_9
REMARK    9  A    between atoms: C_9  and  C_11
REMARK   10  A    between atoms: C_12  and  C_13
REMARK   11  A    between atoms: C_16  and  O_17
REMARK   12  A    between atoms: O_17  and  C_18
REMARK                            x       y       z     vdW  Elec       q    Type
REMARK                         _______ _______ _______ _____ _____    ______ ____
ROOT
ATOM      1  C   UNL     1      -6.606   2.515  -1.658  0.00  0.00    +0.000 C 
ATOM      2  O   UNL     1      -7.768   2.460  -1.960  0.00  0.00    +0.000 OA
ENDROOT
BRANCH   1   3
ATOM      3  C   UNL     1      -5.829   3.648  -1.968  0.00  0.00    +0.000 C 
ATOM      4  C   UNL     1      -6.426   4.676  -2.378  0.00  0.00    +0.000 C 
BRANCH   4   5
ATOM      5  C   UNL     1      -5.795   5.802  -2.862  0.00  0.00    +0.000 A 
ATOM      6  C   UNL     1      -4.543   5.755  -3.336  0.00  0.00    +0.000 A 
ATOM      7  C   UNL     1      -3.907   6.854  -3.815  0.00  0.00    +0.000 A 
ATOM      8  C   UNL     1      -4.612   8.021  -3.833  0.00  0.00    +0.000 A 
ATOM      9  C   UNL     1      -5.850   8.119  -3.391  0.00  0.00    +0.000 A 
ATOM     10  C   UNL     1      -6.435   7.011  -2.880  0.00  0.00    +0.000 A 
BRANCH   8  11
ATOM     11  O   UNL     1      -4.058   9.125  -4.273  0.00  0.00    +0.000 OA
ATOM     12  C   UNL     1      -2.749   8.964  -4.701  0.00  0.00    +0.000 C 
ENDBRANCH   8  11
ENDBRANCH   4   5
ENDBRANCH   1   3
BRANCH   1  13
ATOM     13  O   UNL     1      -6.053   1.529  -1.037  0.00  0.00    +0.000 OA
BRANCH  13  14
ATOM     14  C   UNL     1      -5.454   1.896   0.009  0.00  0.00    +0.000 C 
BRANCH  14  15
ATOM     15  C   UNL     1      -6.383   2.056   1.164  0.00  0.00    +0.000 C 
ATOM     16  C   UNL     1      -7.038   0.860   1.533  0.00  0.00    +0.000 C 
ENDBRANCH  14  15
BRANCH  14  17
ATOM     17  C   UNL     1      -4.210   1.288   0.238  0.00  0.00    +0.000 C 
BRANCH  17  18
ATOM     18  C   UNL     1      -3.939   0.194  -0.624  0.00  0.00    +0.000 C 
BRANCH  18  20
ATOM     19  C   UNL     1      -3.357  -0.498   1.628  0.00  0.00    +0.000 C 
ATOM     20  C   UNL     1      -3.911  -0.931   0.290  0.00  0.00    +0.000 C 
ENDBRANCH  18  20
ENDBRANCH  17  18
ENDBRANCH  14  17
ENDBRANCH  13  14
ENDBRANCH   1  13
TORSDOF 9
ENDMDL
MODEL 5
REMARK VINA RESULT:      -3.5      2.243      6.971
REMARK  Name = bg33_1_ligand
REMARK  12 active torsions:
REMARK  status: ('A' for Active; 'I' for Inactive)
REMARK    1  A    between atoms: C_1  and  C_2
REMARK    2  A    between atoms: C_2  and  C_3
REMARK    3  A    between atoms: C_3  and  C_4
REMARK    4  A    between atoms: C_4  and  C_5
REMARK    5  A    between atoms: C_5  and  C_6
REMARK    6  A    between atoms: C_5  and  O_8
REMARK    7  A    between atoms: C_6  and  C_7
REMARK    8  A    between atoms: O_8  and  C_9
REMARK    9  A    between atoms: C_9  and  C_11
REMARK   10  A    between atoms: C_12  and  C_13
REMARK   11  A    between atoms: C_16  and  O_17
REMARK   12  A    between atoms: O_17  and  C_18
REMARK                            x       y       z     vdW  Elec       q    Type
REMARK                         _______ _______ _______ _____ _____    ______ ____
ROOT
ATOM      1  C   UNL     1      -6.727   2.306  -1.231  0.00  0.00    +0.000 C 
ATOM      2  O   UNL     1      -7.855   2.076  -1.574  0.00  0.00    +0.000 OA
ENDROOT
BRANCH   1   3
ATOM      3  C   UNL     1      -6.148   3.572  -1.445  0.00  0.00    +0.000 C 
ATOM      4  C   UNL     1      -6.585   4.266  -2.398  0.00  0.00    +0.000 C 
BRANCH   4   5
ATOM      5  C   UNL     1      -6.022   5.449  -2.824  0.00  0.00    +0.000 A 
ATOM      6  C   UNL     1      -6.714   6.596  -2.821  0.00  0.00    +0.000 A 
ATOM      7  C   UNL     1      -6.175   7.769  -3.239  0.00  0.00    +0.000 A 
ATOM      8  C   UNL     1      -4.870   7.747  -3.634  0.00  0.00    +0.000 A 
ATOM      9  C   UNL     1      -4.141   6.649  -3.644  0.00  0.00    +0.000 A 
ATOM     10  C   UNL     1      -4.726   5.491  -3.262  0.00  0.00    +0.000 A 
BRANCH   8  11
ATOM     11  O   UNL     1      -4.286   8.842  -4.059  0.00  0.00    +0.000 OA
ATOM     12  C   UNL     1      -3.034   8.631  -4.616  0.00  0.00    +0.000 C 
ENDBRANCH   8  11
ENDBRANCH   4   5
ENDBRANCH   1   3
BRANCH   1  13
ATOM     13  O   UNL     1      -6.028   1.389  -0.654  0.00  0.00    +0.000 OA
BRANCH  13  14
ATOM     14  C   UNL     1      -4.905   1.223  -1.202  0.00  0.00    +0.000 C 
BRANCH  14  15
ATOM     15  C   UNL     1      -3.827   0.957  -0.208  0.00  0.00    +0.000 C 
ATOM     16  C   UNL     1      -4.310   0.546   1.054  0.00  0.00    +0.000 C 
ENDBRANCH  14  15
BRANCH  14  17
ATOM     17  C   UNL     1      -4.916   0.471  -2.386  0.00  0.00    +0.000 C 
BRANCH  17  18
ATOM     18  C   UNL     1      -3.789   0.698  -3.219  0.00  0.00    +0.000 C 
BRANCH  18  20
ATOM     19  C   UNL     1      -5.500   1.491  -4.747  0.00  0.00    +0.000 C 
ATOM     20  C   UNL     1      -4.213   1.825  -4.026  0.00  0.00    +0.000 C 
ENDBRANCH  18  20
ENDBRANCH  17  18
ENDBRANCH  14  17
ENDBRANCH  13  14
ENDBRANCH   1  13
TORSDOF 9
ENDMDL
MODEL 6
REMARK VINA RESULT:      -3.5      1.936      7.889
REMARK  Name = bg33_1_ligand
REMARK  12 active torsions:
REMARK  status: ('A' for Active; 'I' for Inactive)
REMARK    1  A    between atoms: C_1  and  C_2
REMARK    2  A    between atoms: C_2  and  C_3
REMARK    3  A    between atoms: C_3  and  C_4
REMARK    4  A    between atoms: C_4  and  C_5
REMARK    5  A    between atoms: C_5  and  C_6
REMARK    6  A    between atoms: C_5  and  O_8
REMARK    7  A    between atoms: C_6  and  C_7
REMARK    8  A    between atoms: O_8  and  C_9
REMARK    9  A    between atoms: C_9  and  C_11
REMARK   10  A    between atoms: C_12  and  C_13
REMARK   11  A    between atoms: C_16  and  O_17
REMARK   12  A    between atoms: O_17  and  C_18
REMARK                            x       y       z     vdW  Elec       q    Type
REMARK                         _______ _______ _______ _____ _____    ______ ____
ROOT
ATOM      1  C   UNL     1      -5.485   1.847  -0.198  0.00  0.00    +0.000 C 
ATOM      2  O   UNL     1      -6.275   0.942  -0.226  0.00  0.00    +0.000 OA
ENDROOT
BRANCH   1   3
ATOM      3  C   UNL     1      -5.813   3.111  -0.725  0.00  0.00    +0.000 C 
ATOM      4  C   UNL     1      -6.614   3.156  -1.693  0.00  0.00    +0.000 C 
BRANCH   4   5
ATOM      5  C   UNL     1      -6.910   4.296  -2.408  0.00  0.00    +0.000 A 
ATOM      6  C   UNL     1      -8.101   4.465  -2.997  0.00  0.00    +0.000 A 
ATOM      7  C   UNL     1      -8.407   5.580  -3.707  0.00  0.00    +0.000 A 
ATOM      8  C   UNL     1      -7.458   6.556  -3.771  0.00  0.00    +0.000 A 
ATOM      9  C   UNL     1      -6.275   6.446  -3.199  0.00  0.00    +0.000 A 
ATOM     10  C   UNL     1      -5.990   5.301  -2.538  0.00  0.00    +0.000 A 
BRANCH   8  11
ATOM     11  O   UNL     1      -7.682   7.657  -4.447  0.00  0.00    +0.000 OA
ATOM     12  C   UNL     1      -6.530   8.278  -4.906  0.00  0.00    +0.000 C 
ENDBRANCH   8  11
ENDBRANCH   4   5
ENDBRANCH   1   3
BRANCH   1  13
ATOM     13  O   UNL     1      -4.320   1.670   0.324  0.00  0.00    +0.000 OA
BRANCH  13  14
ATOM     14  C   UNL     1      -3.921   0.479   0.216  0.00  0.00    +0.000 C 
BRANCH  14  15
ATOM     15  C   UNL     1      -3.199   0.241  -1.067  0.00  0.00    +0.000 C 
ATOM     16  C   UNL     1      -2.926  -1.122  -1.318  0.00  0.00    +0.000 C 
ENDBRANCH  14  15
BRANCH  14  17
ATOM     17  C   UNL     1      -3.399  -0.093   1.386  0.00  0.00    +0.000 C 
BRANCH  17  18
ATOM     18  C   UNL     1      -4.378  -0.707   2.209  0.00  0.00    +0.000 C 
BRANCH  18  20
ATOM     19  C   UNL     1      -2.345  -0.474   3.514  0.00  0.00    +0.000 C 
ATOM     20  C   UNL     1      -3.856  -0.484   3.543  0.00  0.00    +0.000 C 
ENDBRANCH  18  20
ENDBRANCH  17  18
ENDBRANCH  14  17
ENDBRANCH  13  14
ENDBRANCH   1  13
TORSDOF 9
ENDMDL
MODEL 7
REMARK VINA RESULT:      -3.5      1.829      7.689
REMARK  Name = bg33_1_ligand
REMARK  12 active torsions:
REMARK  status: ('A' for Active; 'I' for Inactive)
REMARK    1  A    between atoms: C_1  and  C_2
REMARK    2  A    between atoms: C_2  and  C_3
REMARK    3  A    between atoms: C_3  and  C_4
REMARK    4  A    between atoms: C_4  and  C_5
REMARK    5  A    between atoms: C_5  and  C_6
REMARK    6  A    between atoms: C_5  and  O_8
REMARK    7  A    between atoms: C_6  and  C_7
REMARK    8  A    between atoms: O_8  and  C_9
REMARK    9  A    between atoms: C_9  and  C_11
REMARK   10  A    between atoms: C_12  and  C_13
REMARK   11  A    between atoms: C_16  and  O_17
REMARK   12  A    between atoms: O_17  and  C_18
REMARK                            x       y       z     vdW  Elec       q    Type
REMARK                         _______ _______ _______ _____ _____    ______ ____
ROOT
ATOM      1  C   UNL     1      -4.908   1.848  -0.587  0.00  0.00    +0.000 C 
ATOM      2  O   UNL     1      -4.519   1.057  -1.404  0.00  0.00    +0.000 OA
ENDROOT
BRANCH   1   3
ATOM      3  C   UNL     1      -5.765   2.904  -0.951  0.00  0.00    +0.000 C 
ATOM      4  C   UNL     1      -5.735   3.302  -2.144  0.00  0.00    +0.000 C 
BRANCH   4   5
ATOM      5  C   UNL     1      -6.397   4.417  -2.610  0.00  0.00    +0.000 A 
ATOM      6  C   UNL     1      -7.675   4.358  -3.008  0.00  0.00    +0.000 A 
ATOM      7  C   UNL     1      -8.340   5.446  -3.472  0.00  0.00    +0.000 A 
ATOM      8  C   UNL     1      -7.664   6.629  -3.485  0.00  0.00    +0.000 A 
ATOM      9  C   UNL     1      -6.411   6.744  -3.093  0.00  0.00    +0.000 A 
ATOM     10  C   UNL     1      -5.766   5.629  -2.679  0.00  0.00    +0.000 A 
BRANCH   8  11
ATOM     11  O   UNL     1      -8.241   7.720  -3.929  0.00  0.00    +0.000 OA
ATOM     12  C   UNL     1      -7.785   8.130  -5.173  0.00  0.00    +0.000 C 
ENDBRANCH   8  11
ENDBRANCH   4   5
ENDBRANCH   1   3
BRANCH   1  13
ATOM     13  O   UNL     1      -4.546   1.733   0.645  0.00  0.00    +0.000 OA
BRANCH  13  14
ATOM     14  C   UNL     1      -4.828   0.603   1.126  0.00  0.00    +0.000 C 
BRANCH  14  15
ATOM     15  C   UNL     1      -3.658  -0.033   1.796  0.00  0.00    +0.000 C 
ATOM     16  C   UNL     1      -3.317  -1.295   1.261  0.00  0.00    +0.000 C 
ENDBRANCH  14  15
BRANCH  14  17
ATOM     17  C   UNL     1      -6.082   0.506   1.749  0.00  0.00    +0.000 C 
BRANCH  17  18
ATOM     18  C   UNL     1      -6.026   0.582   3.165  0.00  0.00    +0.000 C 
BRANCH  18  20
ATOM     19  C   UNL     1      -7.105   2.751   3.019  0.00  0.00    +0.000 C 
ATOM     20  C   UNL     1      -7.229   1.320   3.491  0.00  0.00    +0.000 C 
ENDBRANCH  18  20
ENDBRANCH  17  18
ENDBRANCH  14  17
ENDBRANCH  13  14
ENDBRANCH   1  13
TORSDOF 9
ENDMDL
MODEL 8
REMARK VINA RESULT:      -3.4      4.504      6.344
REMARK  Name = bg33_1_ligand
REMARK  12 active torsions:
REMARK  status: ('A' for Active; 'I' for Inactive)
REMARK    1  A    between atoms: C_1  and  C_2
REMARK    2  A    between atoms: C_2  and  C_3
REMARK    3  A    between atoms: C_3  and  C_4
REMARK    4  A    between atoms: C_4  and  C_5
REMARK    5  A    between atoms: C_5  and  C_6
REMARK    6  A    between atoms: C_5  and  O_8
REMARK    7  A    between atoms: C_6  and  C_7
REMARK    8  A    between atoms: O_8  and  C_9
REMARK    9  A    between atoms: C_9  and  C_11
REMARK   10  A    between atoms: C_12  and  C_13
REMARK   11  A    between atoms: C_16  and  O_17
REMARK   12  A    between atoms: O_17  and  C_18
REMARK                            x       y       z     vdW  Elec       q    Type
REMARK                         _______ _______ _______ _____ _____    ______ ____
ROOT
ATOM      1  C   UNL     1      -4.425   0.189  -0.373  0.00  0.00    +0.000 C 
ATOM      2  O   UNL     1      -5.163  -0.735  -0.589  0.00  0.00    +0.000 OA
ENDROOT
BRANCH   1   3
ATOM      3  C   UNL     1      -3.124   0.218  -0.911  0.00  0.00    +0.000 C 
ATOM      4  C   UNL     1      -2.917  -0.401  -1.986  0.00  0.00    +0.000 C 
BRANCH   4   5
ATOM      5  C   UNL     1      -1.674  -0.590  -2.549  0.00  0.00    +0.000 A 
ATOM      6  C   UNL     1      -0.982   0.427  -3.080  0.00  0.00    +0.000 A 
ATOM      7  C   UNL     1       0.242   0.258  -3.640  0.00  0.00    +0.000 A 
ATOM      8  C   UNL     1       0.770  -0.999  -3.611  0.00  0.00    +0.000 A 
ATOM      9  C   UNL     1       0.138  -2.032  -3.090  0.00  0.00    +0.000 A 
ATOM     10  C   UNL     1      -1.100  -1.832  -2.581  0.00  0.00    +0.000 A 
BRANCH   8  11
ATOM     11  O   UNL     1       1.945  -1.238  -4.142  0.00  0.00    +0.000 OA
ATOM     12  C   UNL     1       2.158  -2.572  -4.456  0.00  0.00    +0.000 C 
ENDBRANCH   8  11
ENDBRANCH   4   5
ENDBRANCH   1   3
BRANCH   1  13
ATOM     13  O   UNL     1      -4.822   1.175   0.357  0.00  0.00    +0.000 OA
BRANCH  13  14
ATOM     14  C   UNL     1      -5.844   1.741  -0.116  0.00  0.00    +0.000 C 
BRANCH  14  15
ATOM     15  C   UNL     1      -7.004   1.684   0.819  0.00  0.00    +0.000 C 
ATOM     16  C   UNL     1      -6.675   2.027   2.149  0.00  0.00    +0.000 C 
ENDBRANCH  14  15
BRANCH  14  17
ATOM     17  C   UNL     1      -5.607   2.940  -0.806  0.00  0.00    +0.000 C 
BRANCH  17  18
ATOM     18  C   UNL     1      -6.567   3.222  -1.812  0.00  0.00    +0.000 C 
BRANCH  18  20
ATOM     19  C   UNL     1      -7.309   5.226  -2.961  0.00  0.00    +0.000 C 
ATOM     20  C   UNL     1      -6.149   4.523  -2.294  0.00  0.00    +0.000 C 
ENDBRANCH  18  20
ENDBRANCH  17  18
ENDBRANCH  14  17
ENDBRANCH  13  14
ENDBRANCH   1  13
TORSDOF 9
ENDMDL
MODEL 9
REMARK VINA RESULT:      -3.4      1.533      2.759
REMARK  Name = bg33_1_ligand
REMARK  12 active torsions:
REMARK  status: ('A' for Active; 'I' for Inactive)
REMARK    1  A    between atoms: C_1  and  C_2
REMARK    2  A    between atoms: C_2  and  C_3
REMARK    3  A    between atoms: C_3  and  C_4
REMARK    4  A    between atoms: C_4  and  C_5
REMARK    5  A    between atoms: C_5  and  C_6
REMARK    6  A    between atoms: C_5  and  O_8
REMARK    7  A    between atoms: C_6  and  C_7
REMARK    8  A    between atoms: O_8  and  C_9
REMARK    9  A    between atoms: C_9  and  C_11
REMARK   10  A    between atoms: C_12  and  C_13
REMARK   11  A    between atoms: C_16  and  O_17
REMARK   12  A    between atoms: O_17  and  C_18
REMARK                            x       y       z     vdW  Elec       q    Type
REMARK                         _______ _______ _______ _____ _____    ______ ____
ROOT
ATOM      1  C   UNL     1      -7.151   4.680  -2.710  0.00  0.00    +0.000 C 
ATOM      2  O   UNL     1      -8.248   4.930  -3.133  0.00  0.00    +0.000 OA
ENDROOT
BRANCH   1   3
ATOM      3  C   UNL     1      -6.900   3.487  -2.005  0.00  0.00    +0.000 C 
ATOM      4  C   UNL     1      -6.066   3.524  -1.064  0.00  0.00    +0.000 C 
BRANCH   4   5
ATOM      5  C   UNL     1      -5.605   2.416  -0.388  0.00  0.00    +0.000 A 
ATOM      6  C   UNL     1      -4.629   1.646  -0.888  0.00  0.00    +0.000 A 
ATOM      7  C   UNL     1      -4.165   0.550  -0.235  0.00  0.00    +0.000 A 
ATOM      8  C   UNL     1      -4.708   0.276   0.984  0.00  0.00    +0.000 A 
ATOM      9  C   UNL     1      -5.661   1.008   1.527  0.00  0.00    +0.000 A 
ATOM     10  C   UNL     1      -6.129   2.067   0.827  0.00  0.00    +0.000 A 
BRANCH   8  11
ATOM     11  O   UNL     1      -4.314  -0.772   1.667  0.00  0.00    +0.000 OA
ATOM     12  C   UNL     1      -3.047  -0.642   2.214  0.00  0.00    +0.000 C 
ENDBRANCH   8  11
ENDBRANCH   4   5
ENDBRANCH   1   3
BRANCH   1  13
ATOM     13  O   UNL     1      -6.181   5.508  -2.904  0.00  0.00    +0.000 OA
BRANCH  13  14
ATOM     14  C   UNL     1      -6.134   5.922  -4.093  0.00  0.00    +0.000 C 
BRANCH  14  15
ATOM     15  C   UNL     1      -6.095   7.411  -4.170  0.00  0.00    +0.000 C 
ATOM     16  C   UNL     1      -5.737   8.031  -2.952  0.00  0.00    +0.000 C 
ENDBRANCH  14  15
BRANCH  14  17
ATOM     17  C   UNL     1      -5.303   5.192  -4.956  0.00  0.00    +0.000 C 
BRANCH  17  18
ATOM     18  C   UNL     1      -3.957   5.104  -4.517  0.00  0.00    +0.000 C 
BRANCH  18  20
ATOM     19  C   UNL     1      -4.268   2.698  -4.504  0.00  0.00    +0.000 C 
ATOM     20  C   UNL     1      -3.511   3.858  -5.108  0.00  0.00    +0.000 C 
ENDBRANCH  18  20
ENDBRANCH  17  18
ENDBRANCH  14  17
ENDBRANCH  13  14
ENDBRANCH   1  13
TORSDOF 9
ENDMDL
