REMARK  Name = bg33_4_ligand
REMARK  12 active torsions:
REMARK  status: ('A' for Active; 'I' for Inactive)
REMARK    1  A    between atoms: C_1  and  C_2
REMARK    2  A    between atoms: C_2  and  C_3
REMARK    3  A    between atoms: C_3  and  C_4
REMARK    4  A    between atoms: C_4  and  C_5
REMARK    5  A    between atoms: C_5  and  C_6
REMARK    6  A    between atoms: C_5  and  O_8
REMARK    7  A    between atoms: C_6  and  C_7
REMARK    8  A    between atoms: O_8  and  C_9
REMARK    9  A    between atoms: C_9  and  C_11
REMARK   10  A    between atoms: C_12  and  C_13
REMARK   11  A    between atoms: C_16  and  O_17
REMARK   12  A    between atoms: O_17  and  C_18
REMARK                            x       y       z     vdW  Elec       q    Type
REMARK                         _______ _______ _______ _____ _____    ______ ____
ROOT
ATOM      1  C   UNL     1      -0.336  -2.123   6.025  0.00  0.00    +0.000 C 
ATOM      2  O   UNL     1       0.079  -3.068   6.762  0.00  0.00    +0.000 OA
ENDROOT
BRANCH   1   3
ATOM      3  C   UNL     1       0.519  -1.418   5.057  0.00  0.00    +0.000 C 
ATOM      4  C   UNL     1      -0.008  -0.245   4.421  0.00  0.00    +0.000 C 
BRANCH   4   5
ATOM      5  C   UNL     1       0.777   0.472   3.334  0.00  0.00    +0.000 A 
ATOM      6  C   UNL     1       2.155   0.501   3.308  0.00  0.00    +0.000 A 
ATOM      7  C   UNL     1       2.869   1.184   2.264  0.00  0.00    +0.000 A 
ATOM      8  C   UNL     1       2.202   1.835   1.211  0.00  0.00    +0.000 A 
ATOM      9  C   UNL     1       0.811   1.776   1.252  0.00  0.00    +0.000 A 
ATOM     10  C   UNL     1       0.120   1.104   2.269  0.00  0.00    +0.000 A 
BRANCH   8  11
ATOM     11  O   UNL     1       2.833   2.457   0.152  0.00  0.00    +0.000 OA
ATOM     12  C   UNL     1       4.280   2.402   0.077  0.00  0.00    +0.000 C 
ENDBRANCH   8  11
ENDBRANCH   4   5
ENDBRANCH   1   3
BRANCH   1  13
ATOM     13  O   UNL     1      -1.760  -1.778   5.997  0.00  0.00    +0.000 OA
BRANCH  13  14
ATOM     14  C   UNL     1      -2.590  -2.227   7.014  0.00  0.00    +0.000 C 
BRANCH  14  15
ATOM     15  C   UNL     1      -3.152  -3.537   6.389  0.00  0.00    +0.000 C 
ATOM     16  C   UNL     1      -3.810  -4.456   7.469  0.00  0.00    +0.000 C 
ENDBRANCH  14  15
BRANCH  14  17
ATOM     17  C   UNL     1      -3.687  -1.106   7.324  0.00  0.00    +0.000 C 
BRANCH  17  18
ATOM     18  C   UNL     1      -3.136   0.264   7.022  0.00  0.00    +0.000 C 
BRANCH  18  20
ATOM     19  C   UNL     1      -3.568   2.755   7.209  0.00  0.00    +0.000 C 
ATOM     20  C   UNL     1      -3.967   1.376   7.658  0.00  0.00    +0.000 C 
ENDBRANCH  18  20
ENDBRANCH  17  18
ENDBRANCH  14  17
ENDBRANCH  13  14
ENDBRANCH   1  13
TORSDOF 9
