MODEL 1
REMARK VINA RESULT:      -4.7      0.000      0.000
REMARK  Name = bg33_4_ligand
REMARK  12 active torsions:
REMARK  status: ('A' for Active; 'I' for Inactive)
REMARK    1  A    between atoms: C_1  and  C_2
REMARK    2  A    between atoms: C_2  and  C_3
REMARK    3  A    between atoms: C_3  and  C_4
REMARK    4  A    between atoms: C_4  and  C_5
REMARK    5  A    between atoms: C_5  and  C_6
REMARK    6  A    between atoms: C_5  and  O_8
REMARK    7  A    between atoms: C_6  and  C_7
REMARK    8  A    between atoms: O_8  and  C_9
REMARK    9  A    between atoms: C_9  and  C_11
REMARK   10  A    between atoms: C_12  and  C_13
REMARK   11  A    between atoms: C_16  and  O_17
REMARK   12  A    between atoms: O_17  and  C_18
REMARK                            x       y       z     vdW  Elec       q    Type
REMARK                         _______ _______ _______ _____ _____    ______ ____
ROOT
ATOM      1  C   UNL     1      -0.955  -4.074   6.278  0.00  0.00    +0.000 C 
ATOM      2  O   UNL     1      -0.139  -4.441   7.177  0.00  0.00    +0.000 OA
ENDROOT
BRANCH   1   3
ATOM      3  C   UNL     1      -0.583  -3.194   5.159  0.00  0.00    +0.000 C 
ATOM      4  C   UNL     1      -0.295  -1.819   5.450  0.00  0.00    +0.000 C 
BRANCH   4   5
ATOM      5  C   UNL     1      -0.008  -0.830   4.332  0.00  0.00    +0.000 A 
ATOM      6  C   UNL     1       0.025   0.533   4.536  0.00  0.00    +0.000 A 
ATOM      7  C   UNL     1       0.304   1.444   3.459  0.00  0.00    +0.000 A 
ATOM      8  C   UNL     1       0.576   0.992   2.155  0.00  0.00    +0.000 A 
ATOM      9  C   UNL     1       0.553  -0.390   1.981  0.00  0.00    +0.000 A 
ATOM     10  C   UNL     1       0.286  -1.273   3.035  0.00  0.00    +0.000 A 
BRANCH   8  11
ATOM     11  O   UNL     1       0.907   1.813   1.096  0.00  0.00    +0.000 OA
ATOM     12  C   UNL     1       2.308   2.002   0.774  0.00  0.00    +0.000 C 
ENDBRANCH   8  11
ENDBRANCH   4   5
ENDBRANCH   1   3
BRANCH   1  13
ATOM     13  O   UNL     1      -2.305  -4.643   6.229  0.00  0.00    +0.000 OA
BRANCH  13  14
ATOM     14  C   UNL     1      -3.313  -3.950   5.575  0.00  0.00    +0.000 C 
BRANCH  14  15
ATOM     15  C   UNL     1      -4.140  -3.413   6.779  0.00  0.00    +0.000 C 
ATOM     16  C   UNL     1      -3.851  -1.900   7.049  0.00  0.00    +0.000 C 
ENDBRANCH  14  15
BRANCH  14  17
ATOM     17  C   UNL     1      -4.100  -4.958   4.615  0.00  0.00    +0.000 C 
BRANCH  17  18
ATOM     18  C   UNL     1      -3.349  -5.143   3.321  0.00  0.00    +0.000 C 
BRANCH  18  20
ATOM     19  C   UNL     1      -4.756  -6.292   1.553  0.00  0.00    +0.000 C 
ATOM     20  C   UNL     1      -4.252  -4.985   2.100  0.00  0.00    +0.000 C 
ENDBRANCH  18  20
ENDBRANCH  17  18
ENDBRANCH  14  17
ENDBRANCH  13  14
ENDBRANCH   1  13
TORSDOF 9
ENDMDL
MODEL 2
REMARK VINA RESULT:      -4.5      5.256      8.832
REMARK  Name = bg33_4_ligand
REMARK  12 active torsions:
REMARK  status: ('A' for Active; 'I' for Inactive)
REMARK    1  A    between atoms: C_1  and  C_2
REMARK    2  A    between atoms: C_2  and  C_3
REMARK    3  A    between atoms: C_3  and  C_4
REMARK    4  A    between atoms: C_4  and  C_5
REMARK    5  A    between atoms: C_5  and  C_6
REMARK    6  A    between atoms: C_5  and  O_8
REMARK    7  A    between atoms: C_6  and  C_7
REMARK    8  A    between atoms: O_8  and  C_9
REMARK    9  A    between atoms: C_9  and  C_11
REMARK   10  A    between atoms: C_12  and  C_13
REMARK   11  A    between atoms: C_16  and  O_17
REMARK   12  A    between atoms: O_17  and  C_18
REMARK                            x       y       z     vdW  Elec       q    Type
REMARK                         _______ _______ _______ _____ _____    ______ ____
ROOT
ATOM      1  C   UNL     1       2.417   2.854   0.462  0.00  0.00    +0.000 C 
ATOM      2  O   UNL     1       2.363   4.116   0.352  0.00  0.00    +0.000 OA
ENDROOT
BRANCH   1   3
ATOM      3  C   UNL     1       3.612   2.063   0.128  0.00  0.00    +0.000 C 
ATOM      4  C   UNL     1       4.879   2.512   0.630  0.00  0.00    +0.000 C 
BRANCH   4   5
ATOM      5  C   UNL     1       6.167   1.806   0.238  0.00  0.00    +0.000 A 
ATOM      6  C   UNL     1       7.413   2.291   0.574  0.00  0.00    +0.000 A 
ATOM      7  C   UNL     1       8.613   1.599   0.192  0.00  0.00    +0.000 A 
ATOM      8  C   UNL     1       8.577   0.387  -0.521  0.00  0.00    +0.000 A 
ATOM      9  C   UNL     1       7.306  -0.090  -0.833  0.00  0.00    +0.000 A 
ATOM     10  C   UNL     1       6.139   0.587  -0.453  0.00  0.00    +0.000 A 
BRANCH   8  11
ATOM     11  O   UNL     1       9.692  -0.351  -0.865  0.00  0.00    +0.000 OA
ATOM     12  C   UNL     1      10.182  -1.345   0.071  0.00  0.00    +0.000 C 
ENDBRANCH   8  11
ENDBRANCH   4   5
ENDBRANCH   1   3
BRANCH   1  13
ATOM     13  O   UNL     1       1.312   2.118   1.083  0.00  0.00    +0.000 OA
BRANCH  13  14
ATOM     14  C   UNL     1       1.564   1.308   2.180  0.00  0.00    +0.000 C 
BRANCH  14  15
ATOM     15  C   UNL     1       0.174   0.639   2.387  0.00  0.00    +0.000 C 
ATOM     16  C   UNL     1      -0.282   0.706   3.881  0.00  0.00    +0.000 C 
ENDBRANCH  14  15
BRANCH  14  17
ATOM     17  C   UNL     1       2.059   2.219   3.398  0.00  0.00    +0.000 C 
BRANCH  17  18
ATOM     18  C   UNL     1       3.424   1.778   3.861  0.00  0.00    +0.000 C 
BRANCH  18  20
ATOM     19  C   UNL     1       5.175   0.008   3.385  0.00  0.00    +0.000 C 
ATOM     20  C   UNL     1       3.709   0.318   3.516  0.00  0.00    +0.000 C 
ENDBRANCH  18  20
ENDBRANCH  17  18
ENDBRANCH  14  17
ENDBRANCH  13  14
ENDBRANCH   1  13
TORSDOF 9
ENDMDL
MODEL 3
REMARK VINA RESULT:      -4.4      3.236      9.090
REMARK  Name = bg33_4_ligand
REMARK  12 active torsions:
REMARK  status: ('A' for Active; 'I' for Inactive)
REMARK    1  A    between atoms: C_1  and  C_2
REMARK    2  A    between atoms: C_2  and  C_3
REMARK    3  A    between atoms: C_3  and  C_4
REMARK    4  A    between atoms: C_4  and  C_5
REMARK    5  A    between atoms: C_5  and  C_6
REMARK    6  A    between atoms: C_5  and  O_8
REMARK    7  A    between atoms: C_6  and  C_7
REMARK    8  A    between atoms: O_8  and  C_9
REMARK    9  A    between atoms: C_9  and  C_11
REMARK   10  A    between atoms: C_12  and  C_13
REMARK   11  A    between atoms: C_16  and  O_17
REMARK   12  A    between atoms: O_17  and  C_18
REMARK                            x       y       z     vdW  Elec       q    Type
REMARK                         _______ _______ _______ _____ _____    ______ ____
ROOT
ATOM      1  C   UNL     1       2.648   2.050   0.208  0.00  0.00    +0.000 C 
ATOM      2  O   UNL     1       3.000   1.387  -0.814  0.00  0.00    +0.000 OA
ENDROOT
BRANCH   1   3
ATOM      3  C   UNL     1       2.217   1.425   1.469  0.00  0.00    +0.000 C 
ATOM      4  C   UNL     1       0.900   0.861   1.526  0.00  0.00    +0.000 C 
BRANCH   4   5
ATOM      5  C   UNL     1       0.349   0.294   2.825  0.00  0.00    +0.000 A 
ATOM      6  C   UNL     1       0.532  -1.020   3.199  0.00  0.00    +0.000 A 
ATOM      7  C   UNL     1       0.003  -1.525   4.437  0.00  0.00    +0.000 A 
ATOM      8  C   UNL     1      -0.704  -0.704   5.333  0.00  0.00    +0.000 A 
ATOM      9  C   UNL     1      -0.860   0.623   4.938  0.00  0.00    +0.000 A 
ATOM     10  C   UNL     1      -0.338   1.112   3.734  0.00  0.00    +0.000 A 
BRANCH   8  11
ATOM     11  O   UNL     1      -1.185  -1.118   6.559  0.00  0.00    +0.000 OA
ATOM     12  C   UNL     1      -2.619  -1.132   6.774  0.00  0.00    +0.000 C 
ENDBRANCH   8  11
ENDBRANCH   4   5
ENDBRANCH   1   3
BRANCH   1  13
ATOM     13  O   UNL     1       2.798   3.508   0.231  0.00  0.00    +0.000 OA
BRANCH  13  14
ATOM     14  C   UNL     1       3.843   4.074   0.947  0.00  0.00    +0.000 C 
BRANCH  14  15
ATOM     15  C   UNL     1       3.306   5.517   1.176  0.00  0.00    +0.000 C 
ATOM     16  C   UNL     1       1.810   5.510   1.631  0.00  0.00    +0.000 C 
ENDBRANCH  14  15
BRANCH  14  17
ATOM     17  C   UNL     1       5.180   3.986   0.075  0.00  0.00    +0.000 C 
BRANCH  17  18
ATOM     18  C   UNL     1       6.224   3.173   0.797  0.00  0.00    +0.000 C 
BRANCH  18  20
ATOM     19  C   UNL     1       5.930   0.684   1.180  0.00  0.00    +0.000 C 
ATOM     20  C   UNL     1       6.360   1.764   0.225  0.00  0.00    +0.000 C 
ENDBRANCH  18  20
ENDBRANCH  17  18
ENDBRANCH  14  17
ENDBRANCH  13  14
ENDBRANCH   1  13
TORSDOF 9
ENDMDL
MODEL 4
REMARK VINA RESULT:      -4.4      3.352      9.746
REMARK  Name = bg33_4_ligand
REMARK  12 active torsions:
REMARK  status: ('A' for Active; 'I' for Inactive)
REMARK    1  A    between atoms: C_1  and  C_2
REMARK    2  A    between atoms: C_2  and  C_3
REMARK    3  A    between atoms: C_3  and  C_4
REMARK    4  A    between atoms: C_4  and  C_5
REMARK    5  A    between atoms: C_5  and  C_6
REMARK    6  A    between atoms: C_5  and  O_8
REMARK    7  A    between atoms: C_6  and  C_7
REMARK    8  A    between atoms: O_8  and  C_9
REMARK    9  A    between atoms: C_9  and  C_11
REMARK   10  A    between atoms: C_12  and  C_13
REMARK   11  A    between atoms: C_16  and  O_17
REMARK   12  A    between atoms: O_17  and  C_18
REMARK                            x       y       z     vdW  Elec       q    Type
REMARK                         _______ _______ _______ _____ _____    ______ ____
ROOT
ATOM      1  C   UNL     1       2.244   5.223   1.450  0.00  0.00    +0.000 C 
ATOM      2  O   UNL     1       1.457   6.218   1.450  0.00  0.00    +0.000 OA
ENDROOT
BRANCH   1   3
ATOM      3  C   UNL     1       1.987   3.990   2.210  0.00  0.00    +0.000 C 
ATOM      4  C   UNL     1       1.605   2.816   1.480  0.00  0.00    +0.000 C 
BRANCH   4   5
ATOM      5  C   UNL     1       1.220   1.536   2.206  0.00  0.00    +0.000 A 
ATOM      6  C   UNL     1       1.315   1.401   3.574  0.00  0.00    +0.000 A 
ATOM      7  C   UNL     1       0.940   0.179   4.232  0.00  0.00    +0.000 A 
ATOM      8  C   UNL     1       0.440  -0.925   3.520  0.00  0.00    +0.000 A 
ATOM      9  C   UNL     1       0.338  -0.756   2.141  0.00  0.00    +0.000 A 
ATOM     10  C   UNL     1       0.700   0.439   1.505  0.00  0.00    +0.000 A 
BRANCH   8  11
ATOM     11  O   UNL     1       0.011  -2.102   4.102  0.00  0.00    +0.000 OA
ATOM     12  C   UNL     1      -0.677  -2.035   5.377  0.00  0.00    +0.000 C 
ENDBRANCH   8  11
ENDBRANCH   4   5
ENDBRANCH   1   3
BRANCH   1  13
ATOM     13  O   UNL     1       3.405   5.198   0.556  0.00  0.00    +0.000 OA
BRANCH  13  14
ATOM     14  C   UNL     1       4.682   5.208   1.096  0.00  0.00    +0.000 C 
BRANCH  14  15
ATOM     15  C   UNL     1       5.085   6.697   0.891  0.00  0.00    +0.000 C 
ATOM     16  C   UNL     1       5.865   6.906  -0.447  0.00  0.00    +0.000 C 
ENDBRANCH  14  15
BRANCH  14  17
ATOM     17  C   UNL     1       5.589   4.153   0.309  0.00  0.00    +0.000 C 
BRANCH  17  18
ATOM     18  C   UNL     1       4.742   3.019  -0.211  0.00  0.00    +0.000 C 
BRANCH  18  20
ATOM     19  C   UNL     1       5.944   0.797  -0.425  0.00  0.00    +0.000 C 
ATOM     20  C   UNL     1       5.095   1.685   0.443  0.00  0.00    +0.000 C 
ENDBRANCH  18  20
ENDBRANCH  17  18
ENDBRANCH  14  17
ENDBRANCH  13  14
ENDBRANCH   1  13
TORSDOF 9
ENDMDL
MODEL 5
REMARK VINA RESULT:      -4.4      8.191     10.285
REMARK  Name = bg33_4_ligand
REMARK  12 active torsions:
REMARK  status: ('A' for Active; 'I' for Inactive)
REMARK    1  A    between atoms: C_1  and  C_2
REMARK    2  A    between atoms: C_2  and  C_3
REMARK    3  A    between atoms: C_3  and  C_4
REMARK    4  A    between atoms: C_4  and  C_5
REMARK    5  A    between atoms: C_5  and  C_6
REMARK    6  A    between atoms: C_5  and  O_8
REMARK    7  A    between atoms: C_6  and  C_7
REMARK    8  A    between atoms: O_8  and  C_9
REMARK    9  A    between atoms: C_9  and  C_11
REMARK   10  A    between atoms: C_12  and  C_13
REMARK   11  A    between atoms: C_16  and  O_17
REMARK   12  A    between atoms: O_17  and  C_18
REMARK                            x       y       z     vdW  Elec       q    Type
REMARK                         _______ _______ _______ _____ _____    ______ ____
ROOT
ATOM      1  C   UNL     1       8.596   0.200  -0.556  0.00  0.00    +0.000 C 
ATOM      2  O   UNL     1       9.721   0.578  -1.004  0.00  0.00    +0.000 OA
ENDROOT
BRANCH   1   3
ATOM      3  C   UNL     1       7.560   1.131  -0.083  0.00  0.00    +0.000 C 
ATOM      4  C   UNL     1       6.199   0.872  -0.458  0.00  0.00    +0.000 C 
BRANCH   4   5
ATOM      5  C   UNL     1       5.091   1.848  -0.096  0.00  0.00    +0.000 A 
ATOM      6  C   UNL     1       3.764   1.480  -0.044  0.00  0.00    +0.000 A 
ATOM      7  C   UNL     1       2.739   2.426   0.306  0.00  0.00    +0.000 A 
ATOM      8  C   UNL     1       3.039   3.760   0.633  0.00  0.00    +0.000 A 
ATOM      9  C   UNL     1       4.389   4.101   0.589  0.00  0.00    +0.000 A 
ATOM     10  C   UNL     1       5.385   3.174   0.252  0.00  0.00    +0.000 A 
BRANCH   8  11
ATOM     11  O   UNL     1       2.106   4.697   1.031  0.00  0.00    +0.000 OA
ATOM     12  C   UNL     1       2.518   6.083   1.142  0.00  0.00    +0.000 C 
ENDBRANCH   8  11
ENDBRANCH   4   5
ENDBRANCH   1   3
BRANCH   1  13
ATOM     13  O   UNL     1       8.210  -1.212  -0.625  0.00  0.00    +0.000 OA
BRANCH  13  14
ATOM     14  C   UNL     1       8.328  -2.008   0.505  0.00  0.00    +0.000 C 
BRANCH  14  15
ATOM     15  C   UNL     1       9.493  -2.953   0.089  0.00  0.00    +0.000 C 
ATOM     16  C   UNL     1       9.209  -3.650  -1.281  0.00  0.00    +0.000 C 
ENDBRANCH  14  15
BRANCH  14  17
ATOM     17  C   UNL     1       6.933  -2.740   0.775  0.00  0.00    +0.000 C 
BRANCH  17  18
ATOM     18  C   UNL     1       6.522  -2.571   2.215  0.00  0.00    +0.000 C 
BRANCH  18  20
ATOM     19  C   UNL     1       5.533  -0.366   2.980  0.00  0.00    +0.000 C 
ATOM     20  C   UNL     1       6.787  -1.159   2.732  0.00  0.00    +0.000 C 
ENDBRANCH  18  20
ENDBRANCH  17  18
ENDBRANCH  14  17
ENDBRANCH  13  14
ENDBRANCH   1  13
TORSDOF 9
ENDMDL
MODEL 6
REMARK VINA RESULT:      -4.4      1.614      3.581
REMARK  Name = bg33_4_ligand
REMARK  12 active torsions:
REMARK  status: ('A' for Active; 'I' for Inactive)
REMARK    1  A    between atoms: C_1  and  C_2
REMARK    2  A    between atoms: C_2  and  C_3
REMARK    3  A    between atoms: C_3  and  C_4
REMARK    4  A    between atoms: C_4  and  C_5
REMARK    5  A    between atoms: C_5  and  C_6
REMARK    6  A    between atoms: C_5  and  O_8
REMARK    7  A    between atoms: C_6  and  C_7
REMARK    8  A    between atoms: O_8  and  C_9
REMARK    9  A    between atoms: C_9  and  C_11
REMARK   10  A    between atoms: C_12  and  C_13
REMARK   11  A    between atoms: C_16  and  O_17
REMARK   12  A    between atoms: O_17  and  C_18
REMARK                            x       y       z     vdW  Elec       q    Type
REMARK                         _______ _______ _______ _____ _____    ______ ____
ROOT
ATOM      1  C   UNL     1      -0.473  -3.064   5.600  0.00  0.00    +0.000 C 
ATOM      2  O   UNL     1       0.110  -3.986   6.247  0.00  0.00    +0.000 OA
ENDROOT
BRANCH   1   3
ATOM      3  C   UNL     1       0.234  -2.133   4.707  0.00  0.00    +0.000 C 
ATOM      4  C   UNL     1      -0.327  -0.827   4.514  0.00  0.00    +0.000 C 
BRANCH   4   5
ATOM      5  C   UNL     1       0.291   0.149   3.525  0.00  0.00    +0.000 A 
ATOM      6  C   UNL     1       0.376  -0.115   2.174  0.00  0.00    +0.000 A 
ATOM      7  C   UNL     1       0.961   0.830   1.263  0.00  0.00    +0.000 A 
ATOM      8  C   UNL     1       1.455   2.073   1.698  0.00  0.00    +0.000 A 
ATOM      9  C   UNL     1       1.341   2.322   3.063  0.00  0.00    +0.000 A 
ATOM     10  C   UNL     1       0.764   1.399   3.947  0.00  0.00    +0.000 A 
BRANCH   8  11
ATOM     11  O   UNL     1       1.975   3.043   0.863  0.00  0.00    +0.000 OA
ATOM     12  C   UNL     1       2.987   2.658  -0.101  0.00  0.00    +0.000 C 
ENDBRANCH   8  11
ENDBRANCH   4   5
ENDBRANCH   1   3
BRANCH   1  13
ATOM     13  O   UNL     1      -1.935  -2.973   5.597  0.00  0.00    +0.000 OA
BRANCH  13  14
ATOM     14  C   UNL     1      -2.619  -2.962   6.804  0.00  0.00    +0.000 C 
BRANCH  14  15
ATOM     15  C   UNL     1      -4.055  -3.345   6.341  0.00  0.00    +0.000 C 
ATOM     16  C   UNL     1      -4.029  -4.427   5.213  0.00  0.00    +0.000 C 
ENDBRANCH  14  15
BRANCH  14  17
ATOM     17  C   UNL     1      -2.490  -1.510   7.462  0.00  0.00    +0.000 C 
BRANCH  17  18
ATOM     18  C   UNL     1      -3.607  -0.617   6.984  0.00  0.00    +0.000 C 
BRANCH  18  20
ATOM     19  C   UNL     1      -3.740   1.860   6.462  0.00  0.00    +0.000 C 
ATOM     20  C   UNL     1      -3.098   0.541   6.129  0.00  0.00    +0.000 C 
ENDBRANCH  18  20
ENDBRANCH  17  18
ENDBRANCH  14  17
ENDBRANCH  13  14
ENDBRANCH   1  13
TORSDOF 9
ENDMDL
MODEL 7
REMARK VINA RESULT:      -4.4      3.338      9.296
REMARK  Name = bg33_4_ligand
REMARK  12 active torsions:
REMARK  status: ('A' for Active; 'I' for Inactive)
REMARK    1  A    between atoms: C_1  and  C_2
REMARK    2  A    between atoms: C_2  and  C_3
REMARK    3  A    between atoms: C_3  and  C_4
REMARK    4  A    between atoms: C_4  and  C_5
REMARK    5  A    between atoms: C_5  and  C_6
REMARK    6  A    between atoms: C_5  and  O_8
REMARK    7  A    between atoms: C_6  and  C_7
REMARK    8  A    between atoms: O_8  and  C_9
REMARK    9  A    between atoms: C_9  and  C_11
REMARK   10  A    between atoms: C_12  and  C_13
REMARK   11  A    between atoms: C_16  and  O_17
REMARK   12  A    between atoms: O_17  and  C_18
REMARK                            x       y       z     vdW  Elec       q    Type
REMARK                         _______ _______ _______ _____ _____    ______ ____
ROOT
ATOM      1  C   UNL     1       2.998   2.227   0.411  0.00  0.00    +0.000 C 
ATOM      2  O   UNL     1       2.477   3.308   0.001  0.00  0.00    +0.000 OA
ENDROOT
BRANCH   1   3
ATOM      3  C   UNL     1       2.508   1.487   1.584  0.00  0.00    +0.000 C 
ATOM      4  C   UNL     1       1.127   1.100   1.609  0.00  0.00    +0.000 C 
BRANCH   4   5
ATOM      5  C   UNL     1       0.527   0.428   2.834  0.00  0.00    +0.000 A 
ATOM      6  C   UNL     1      -0.243   1.108   3.754  0.00  0.00    +0.000 A 
ATOM      7  C   UNL     1      -0.800   0.444   4.900  0.00  0.00    +0.000 A 
ATOM      8  C   UNL     1      -0.606  -0.930   5.129  0.00  0.00    +0.000 A 
ATOM      9  C   UNL     1       0.161  -1.597   4.177  0.00  0.00    +0.000 A 
ATOM     10  C   UNL     1       0.697  -0.945   3.058  0.00  0.00    +0.000 A 
BRANCH   8  11
ATOM     11  O   UNL     1      -1.162  -1.634   6.179  0.00  0.00    +0.000 OA
ATOM     12  C   UNL     1      -0.290  -2.432   7.019  0.00  0.00    +0.000 C 
ENDBRANCH   8  11
ENDBRANCH   4   5
ENDBRANCH   1   3
BRANCH   1  13
ATOM     13  O   UNL     1       4.048   1.569  -0.373  0.00  0.00    +0.000 OA
BRANCH  13  14
ATOM     14  C   UNL     1       5.269   1.291   0.223  0.00  0.00    +0.000 C 
BRANCH  14  15
ATOM     15  C   UNL     1       5.850   2.724   0.404  0.00  0.00    +0.000 C 
ATOM     16  C   UNL     1       6.507   2.907   1.811  0.00  0.00    +0.000 C 
ENDBRANCH  14  15
BRANCH  14  17
ATOM     17  C   UNL     1       6.116   0.341  -0.745  0.00  0.00    +0.000 C 
BRANCH  17  18
ATOM     18  C   UNL     1       6.937  -0.631   0.063  0.00  0.00    +0.000 C 
BRANCH  18  20
ATOM     19  C   UNL     1       8.845   0.723  -0.915  0.00  0.00    +0.000 C 
ATOM     20  C   UNL     1       8.395  -0.193   0.190  0.00  0.00    +0.000 C 
ENDBRANCH  18  20
ENDBRANCH  17  18
ENDBRANCH  14  17
ENDBRANCH  13  14
ENDBRANCH   1  13
TORSDOF 9
ENDMDL
MODEL 8
REMARK VINA RESULT:      -4.3      3.181      9.467
REMARK  Name = bg33_4_ligand
REMARK  12 active torsions:
REMARK  status: ('A' for Active; 'I' for Inactive)
REMARK    1  A    between atoms: C_1  and  C_2
REMARK    2  A    between atoms: C_2  and  C_3
REMARK    3  A    between atoms: C_3  and  C_4
REMARK    4  A    between atoms: C_4  and  C_5
REMARK    5  A    between atoms: C_5  and  C_6
REMARK    6  A    between atoms: C_5  and  O_8
REMARK    7  A    between atoms: C_6  and  C_7
REMARK    8  A    between atoms: O_8  and  C_9
REMARK    9  A    between atoms: C_9  and  C_11
REMARK   10  A    between atoms: C_12  and  C_13
REMARK   11  A    between atoms: C_16  and  O_17
REMARK   12  A    between atoms: O_17  and  C_18
REMARK                            x       y       z     vdW  Elec       q    Type
REMARK                         _______ _______ _______ _____ _____    ______ ____
ROOT
ATOM      1  C   UNL     1       2.424   2.737   0.588  0.00  0.00    +0.000 C 
ATOM      2  O   UNL     1       3.140   2.462  -0.422  0.00  0.00    +0.000 OA
ENDROOT
BRANCH   1   3
ATOM      3  C   UNL     1       2.102   1.760   1.640  0.00  0.00    +0.000 C 
ATOM      4  C   UNL     1       0.728   1.382   1.811  0.00  0.00    +0.000 C 
BRANCH   4   5
ATOM      5  C   UNL     1       0.309   0.460   2.945  0.00  0.00    +0.000 A 
ATOM      6  C   UNL     1       0.596  -0.888   2.953  0.00  0.00    +0.000 A 
ATOM      7  C   UNL     1       0.189  -1.733   4.042  0.00  0.00    +0.000 A 
ATOM      8  C   UNL     1      -0.500  -1.226   5.158  0.00  0.00    +0.000 A 
ATOM      9  C   UNL     1      -0.762   0.141   5.133  0.00  0.00    +0.000 A 
ATOM     10  C   UNL     1      -0.358   0.962   4.071  0.00  0.00    +0.000 A 
BRANCH   8  11
ATOM     11  O   UNL     1      -0.865  -1.977   6.258  0.00  0.00    +0.000 OA
ATOM     12  C   UNL     1      -2.275  -2.128   6.558  0.00  0.00    +0.000 C 
ENDBRANCH   8  11
ENDBRANCH   4   5
ENDBRANCH   1   3
BRANCH   1  13
ATOM     13  O   UNL     1       1.996   4.116   0.837  0.00  0.00    +0.000 OA
BRANCH  13  14
ATOM     14  C   UNL     1       2.718   4.905   1.720  0.00  0.00    +0.000 C 
BRANCH  14  15
ATOM     15  C   UNL     1       1.623   5.268   2.765  0.00  0.00    +0.000 C 
ATOM     16  C   UNL     1       1.764   4.416   4.069  0.00  0.00    +0.000 C 
ENDBRANCH  14  15
BRANCH  14  17
ATOM     17  C   UNL     1       3.328   6.152   0.926  0.00  0.00    +0.000 C 
BRANCH  17  18
ATOM     18  C   UNL     1       2.222   6.993   0.343  0.00  0.00    +0.000 C 
BRANCH  18  20
ATOM     19  C   UNL     1       1.716   8.925  -1.220  0.00  0.00    +0.000 C 
ATOM     20  C   UNL     1       2.754   8.227  -0.384  0.00  0.00    +0.000 C 
ENDBRANCH  18  20
ENDBRANCH  17  18
ENDBRANCH  14  17
ENDBRANCH  13  14
ENDBRANCH   1  13
TORSDOF 9
ENDMDL
MODEL 9
REMARK VINA RESULT:      -4.3      8.283     10.894
REMARK  Name = bg33_4_ligand
REMARK  12 active torsions:
REMARK  status: ('A' for Active; 'I' for Inactive)
REMARK    1  A    between atoms: C_1  and  C_2
REMARK    2  A    between atoms: C_2  and  C_3
REMARK    3  A    between atoms: C_3  and  C_4
REMARK    4  A    between atoms: C_4  and  C_5
REMARK    5  A    between atoms: C_5  and  C_6
REMARK    6  A    between atoms: C_5  and  O_8
REMARK    7  A    between atoms: C_6  and  C_7
REMARK    8  A    between atoms: O_8  and  C_9
REMARK    9  A    between atoms: C_9  and  C_11
REMARK   10  A    between atoms: C_12  and  C_13
REMARK   11  A    between atoms: C_16  and  O_17
REMARK   12  A    between atoms: O_17  and  C_18
REMARK                            x       y       z     vdW  Elec       q    Type
REMARK                         _______ _______ _______ _____ _____    ______ ____
ROOT
ATOM      1  C   UNL     1       2.448   3.181   0.652  0.00  0.00    +0.000 C 
ATOM      2  O   UNL     1       1.457   2.473   1.008  0.00  0.00    +0.000 OA
ENDROOT
BRANCH   1   3
ATOM      3  C   UNL     1       3.674   2.617   0.065  0.00  0.00    +0.000 C 
ATOM      4  C   UNL     1       4.649   2.052   0.953  0.00  0.00    +0.000 C 
BRANCH   4   5
ATOM      5  C   UNL     1       5.984   1.548   0.427  0.00  0.00    +0.000 A 
ATOM      6  C   UNL     1       6.089   0.459  -0.411  0.00  0.00    +0.000 A 
ATOM      7  C   UNL     1       7.366   0.009  -0.896  0.00  0.00    +0.000 A 
ATOM      8  C   UNL     1       8.562   0.667  -0.559  0.00  0.00    +0.000 A 
ATOM      9  C   UNL     1       8.425   1.774   0.275  0.00  0.00    +0.000 A 
ATOM     10  C   UNL     1       7.178   2.212   0.740  0.00  0.00    +0.000 A 
BRANCH   8  11
ATOM     11  O   UNL     1       9.808   0.317  -1.038  0.00  0.00    +0.000 OA
ATOM     12  C   UNL     1      10.594  -0.647  -0.292  0.00  0.00    +0.000 C 
ENDBRANCH   8  11
ENDBRANCH   4   5
ENDBRANCH   1   3
BRANCH   1  13
ATOM     13  O   UNL     1       2.358   4.643   0.674  0.00  0.00    +0.000 OA
BRANCH  13  14
ATOM     14  C   UNL     1       2.937   5.346   1.721  0.00  0.00    +0.000 C 
BRANCH  14  15
ATOM     15  C   UNL     1       1.696   6.068   2.322  0.00  0.00    +0.000 C 
ATOM     16  C   UNL     1       1.025   7.024   1.282  0.00  0.00    +0.000 C 
ENDBRANCH  14  15
BRANCH  14  17
ATOM     17  C   UNL     1       4.063   6.318   1.137  0.00  0.00    +0.000 C 
BRANCH  17  18
ATOM     18  C   UNL     1       5.398   5.618   1.109  0.00  0.00    +0.000 C 
BRANCH  18  20
ATOM     19  C   UNL     1       7.519   6.035  -0.215  0.00  0.00    +0.000 C 
ATOM     20  C   UNL     1       6.058   5.681  -0.266  0.00  0.00    +0.000 C 
ENDBRANCH  18  20
ENDBRANCH  17  18
ENDBRANCH  14  17
ENDBRANCH  13  14
ENDBRANCH   1  13
TORSDOF 9
ENDMDL
