REMARK  Name = ox2_shuffle_esm0_ligand
REMARK  5 active torsions:
REMARK  status: ('A' for Active; 'I' for Inactive)
REMARK    1  A    between atoms: C_1  and  O_2
REMARK    2  A    between atoms: O_2  and  C_3
REMARK    3  A    between atoms: C_6  and  C_7
REMARK    4  A    between atoms: C_7  and  C_9
REMARK    5  A    between atoms: C_15  and  O_16
REMARK                            x       y       z     vdW  Elec       q    Type
REMARK                         _______ _______ _______ _____ _____    ______ ____
ROOT
ATOM      1  C   UNL     1       1.120   6.520  -0.929  0.00  0.00    +0.000 A 
ATOM      2  C   UNL     1      -0.013   7.038  -0.312  0.00  0.00    +0.000 A 
ATOM      3  C   UNL     1      -1.242   6.487  -0.573  0.00  0.00    +0.000 A 
ATOM      4  C   UNL     1      -1.372   5.421  -1.434  0.00  0.00    +0.000 A 
ATOM      5  C   UNL     1      -0.242   4.918  -2.065  0.00  0.00    +0.000 A 
ATOM      6  C   UNL     1       0.998   5.466  -1.800  0.00  0.00    +0.000 A 
ENDROOT
BRANCH   1   8
ATOM      7  C   UNL     1       2.541   8.325  -0.160  0.00  0.00    +0.000 C 
ATOM      8  O   UNL     1       2.357   7.010  -0.692  0.00  0.00    +0.000 OA
ENDBRANCH   1   8
BRANCH   4   9
ATOM      9  C   UNL     1      -2.680   4.779  -1.732  0.00  0.00    +0.000 C 
ATOM     10  O   UNL     1      -2.793   4.235  -2.801  0.00  0.00    +0.000 OA
BRANCH   9  11
ATOM     11  C   UNL     1      -3.823   4.698  -0.800  0.00  0.00    +0.000 A 
ATOM     12  C   UNL     1      -4.941   3.953  -1.172  0.00  0.00    +0.000 A 
ATOM     13  C   UNL     1      -6.018   3.832  -0.324  0.00  0.00    +0.000 A 
ATOM     14  C   UNL     1      -6.012   4.452   0.909  0.00  0.00    +0.000 A 
ATOM     15  C   UNL     1      -4.904   5.182   1.290  0.00  0.00    +0.000 A 
ATOM     16  C   UNL     1      -3.819   5.291   0.439  0.00  0.00    +0.000 A 
ENDBRANCH   9  11
ENDBRANCH   4   9
BRANCH   5  17
ATOM     17  O   UNL     1      -0.386   3.882  -2.935  0.00  0.00    +0.000 OA
ATOM     18  H   UNL     1       0.407   3.509  -3.395  0.00  0.00    +0.000 HD
ENDBRANCH   5  17
TORSDOF 4
