MODEL 1
REMARK VINA RESULT:      -5.5      0.000      0.000
REMARK  Name = ox2_shuffle_esm0_ligand
REMARK  5 active torsions:
REMARK  status: ('A' for Active; 'I' for Inactive)
REMARK    1  A    between atoms: C_1  and  O_2
REMARK    2  A    between atoms: O_2  and  C_3
REMARK    3  A    between atoms: C_6  and  C_7
REMARK    4  A    between atoms: C_7  and  C_9
REMARK    5  A    between atoms: C_15  and  O_16
REMARK                            x       y       z     vdW  Elec       q    Type
REMARK                         _______ _______ _______ _____ _____    ______ ____
ROOT
ATOM      1  C   UNL     1      -1.339   2.560   6.446  0.00  0.00    +0.000 A 
ATOM      2  C   UNL     1      -1.130   1.459   5.623  0.00  0.00    +0.000 A 
ATOM      3  C   UNL     1       0.121   1.214   5.118  0.00  0.00    +0.000 A 
ATOM      4  C   UNL     1       1.181   2.040   5.419  0.00  0.00    +0.000 A 
ATOM      5  C   UNL     1       0.966   3.150   6.224  0.00  0.00    +0.000 A 
ATOM      6  C   UNL     1      -0.291   3.397   6.740  0.00  0.00    +0.000 A 
ENDROOT
BRANCH   1   8
ATOM      7  C   UNL     1      -2.823   4.119   7.558  0.00  0.00    +0.000 C 
ATOM      8  O   UNL     1      -2.546   2.836   6.987  0.00  0.00    +0.000 OA
ENDBRANCH   1   8
BRANCH   4   9
ATOM      9  C   UNL     1       2.558   1.803   4.911  0.00  0.00    +0.000 C 
ATOM     10  O   UNL     1       2.826   2.247   3.824  0.00  0.00    +0.000 OA
BRANCH   9  11
ATOM     11  C   UNL     1       3.639   1.128   5.658  0.00  0.00    +0.000 A 
ATOM     12  C   UNL     1       3.302   0.314   6.739  0.00  0.00    +0.000 A 
ATOM     13  C   UNL     1       4.275  -0.351   7.448  0.00  0.00    +0.000 A 
ATOM     14  C   UNL     1       5.605  -0.221   7.104  0.00  0.00    +0.000 A 
ATOM     15  C   UNL     1       5.947   0.574   6.027  0.00  0.00    +0.000 A 
ATOM     16  C   UNL     1       4.964   1.232   5.311  0.00  0.00    +0.000 A 
ENDBRANCH   9  11
ENDBRANCH   4   9
BRANCH   5  17
ATOM     17  O   UNL     1       2.015   3.975   6.493  0.00  0.00    +0.000 OA
ATOM     18  H   UNL     1       2.059   4.871   6.074  0.00  0.00    +0.000 HD
ENDBRANCH   5  17
TORSDOF 4
ENDMDL
MODEL 2
REMARK VINA RESULT:      -5.4      0.984      1.654
REMARK  Name = ox2_shuffle_esm0_ligand
REMARK  5 active torsions:
REMARK  status: ('A' for Active; 'I' for Inactive)
REMARK    1  A    between atoms: C_1  and  O_2
REMARK    2  A    between atoms: O_2  and  C_3
REMARK    3  A    between atoms: C_6  and  C_7
REMARK    4  A    between atoms: C_7  and  C_9
REMARK    5  A    between atoms: C_15  and  O_16
REMARK                            x       y       z     vdW  Elec       q    Type
REMARK                         _______ _______ _______ _____ _____    ______ ____
ROOT
ATOM      1  C   UNL     1      -1.414   3.001   6.991  0.00  0.00    +0.000 A 
ATOM      2  C   UNL     1      -0.226   3.606   7.385  0.00  0.00    +0.000 A 
ATOM      3  C   UNL     1       0.959   3.213   6.816  0.00  0.00    +0.000 A 
ATOM      4  C   UNL     1       0.990   2.231   5.852  0.00  0.00    +0.000 A 
ATOM      5  C   UNL     1      -0.195   1.614   5.474  0.00  0.00    +0.000 A 
ATOM      6  C   UNL     1      -1.390   2.011   6.040  0.00  0.00    +0.000 A 
ENDROOT
BRANCH   1   8
ATOM      7  C   UNL     1      -2.803   4.653   8.091  0.00  0.00    +0.000 C 
ATOM      8  O   UNL     1      -2.612   3.363   7.502  0.00  0.00    +0.000 OA
ENDBRANCH   1   8
BRANCH   4   9
ATOM      9  C   UNL     1       2.248   1.787   5.194  0.00  0.00    +0.000 C 
ATOM     10  O   UNL     1       2.380   2.054   4.026  0.00  0.00    +0.000 OA
BRANCH   9  11
ATOM     11  C   UNL     1       3.371   1.106   5.870  0.00  0.00    +0.000 A 
ATOM     12  C   UNL     1       3.094   0.254   6.937  0.00  0.00    +0.000 A 
ATOM     13  C   UNL     1       4.109  -0.419   7.580  0.00  0.00    +0.000 A 
ATOM     14  C   UNL     1       5.420  -0.255   7.182  0.00  0.00    +0.000 A 
ATOM     15  C   UNL     1       5.701   0.578   6.118  0.00  0.00    +0.000 A 
ATOM     16  C   UNL     1       4.677   1.243   5.467  0.00  0.00    +0.000 A 
ENDBRANCH   9  11
ENDBRANCH   4   9
BRANCH   5  17
ATOM     17  O   UNL     1      -0.148   0.625   4.541  0.00  0.00    +0.000 OA
ATOM     18  H   UNL     1      -0.016  -0.315   4.822  0.00  0.00    +0.000 HD
ENDBRANCH   5  17
TORSDOF 4
ENDMDL
MODEL 3
REMARK VINA RESULT:      -5.0      1.637      5.907
REMARK  Name = ox2_shuffle_esm0_ligand
REMARK  5 active torsions:
REMARK  status: ('A' for Active; 'I' for Inactive)
REMARK    1  A    between atoms: C_1  and  O_2
REMARK    2  A    between atoms: O_2  and  C_3
REMARK    3  A    between atoms: C_6  and  C_7
REMARK    4  A    between atoms: C_7  and  C_9
REMARK    5  A    between atoms: C_15  and  O_16
REMARK                            x       y       z     vdW  Elec       q    Type
REMARK                         _______ _______ _______ _____ _____    ______ ____
ROOT
ATOM      1  C   UNL     1       4.763   0.383   6.449  0.00  0.00    +0.000 A 
ATOM      2  C   UNL     1       3.695  -0.022   7.242  0.00  0.00    +0.000 A 
ATOM      3  C   UNL     1       2.419   0.361   6.912  0.00  0.00    +0.000 A 
ATOM      4  C   UNL     1       2.177   1.136   5.801  0.00  0.00    +0.000 A 
ATOM      5  C   UNL     1       3.247   1.557   5.022  0.00  0.00    +0.000 A 
ATOM      6  C   UNL     1       4.532   1.169   5.348  0.00  0.00    +0.000 A 
ENDROOT
BRANCH   1   8
ATOM      7  C   UNL     1       7.116   0.441   5.878  0.00  0.00    +0.000 C 
ATOM      8  O   UNL     1       6.036   0.018   6.716  0.00  0.00    +0.000 OA
ENDBRANCH   1   8
BRANCH   4   9
ATOM      9  C   UNL     1       0.810   1.559   5.394  0.00  0.00    +0.000 C 
ATOM     10  O   UNL     1       0.313   0.981   4.461  0.00  0.00    +0.000 OA
BRANCH   9  11
ATOM     11  C   UNL     1      -0.007   2.580   6.080  0.00  0.00    +0.000 A 
ATOM     12  C   UNL     1      -1.329   2.275   6.403  0.00  0.00    +0.000 A 
ATOM     13  C   UNL     1      -2.118   3.188   7.063  0.00  0.00    +0.000 A 
ATOM     14  C   UNL     1      -1.617   4.426   7.412  0.00  0.00    +0.000 A 
ATOM     15  C   UNL     1      -0.306   4.731   7.105  0.00  0.00    +0.000 A 
ATOM     16  C   UNL     1       0.488   3.806   6.452  0.00  0.00    +0.000 A 
ENDBRANCH   9  11
ENDBRANCH   4   9
BRANCH   5  17
ATOM     17  O   UNL     1       2.999   2.346   3.942  0.00  0.00    +0.000 OA
ATOM     18  H   UNL     1       3.750   2.764   3.452  0.00  0.00    +0.000 HD
ENDBRANCH   5  17
TORSDOF 4
ENDMDL
MODEL 4
REMARK VINA RESULT:      -4.9      1.796      6.003
REMARK  Name = ox2_shuffle_esm0_ligand
REMARK  5 active torsions:
REMARK  status: ('A' for Active; 'I' for Inactive)
REMARK    1  A    between atoms: C_1  and  O_2
REMARK    2  A    between atoms: O_2  and  C_3
REMARK    3  A    between atoms: C_6  and  C_7
REMARK    4  A    between atoms: C_7  and  C_9
REMARK    5  A    between atoms: C_15  and  O_16
REMARK                            x       y       z     vdW  Elec       q    Type
REMARK                         _______ _______ _______ _____ _____    ______ ____
ROOT
ATOM      1  C   UNL     1       4.701   1.019   5.589  0.00  0.00    +0.000 A 
ATOM      2  C   UNL     1       4.171   1.731   4.519  0.00  0.00    +0.000 A 
ATOM      3  C   UNL     1       2.814   1.910   4.426  0.00  0.00    +0.000 A 
ATOM      4  C   UNL     1       1.965   1.399   5.382  0.00  0.00    +0.000 A 
ATOM      5  C   UNL     1       2.494   0.671   6.439  0.00  0.00    +0.000 A 
ATOM      6  C   UNL     1       3.860   0.494   6.540  0.00  0.00    +0.000 A 
ENDROOT
BRANCH   1   8
ATOM      7  C   UNL     1       6.542  -0.035   6.759  0.00  0.00    +0.000 C 
ATOM      8  O   UNL     1       6.030   0.831   5.742  0.00  0.00    +0.000 OA
ENDBRANCH   1   8
BRANCH   4   9
ATOM      9  C   UNL     1       0.490   1.585   5.333  0.00  0.00    +0.000 C 
ATOM     10  O   UNL     1      -0.137   0.813   4.653  0.00  0.00    +0.000 OA
BRANCH   9  11
ATOM     11  C   UNL     1      -0.269   2.593   6.100  0.00  0.00    +0.000 A 
ATOM     12  C   UNL     1       0.349   3.802   6.416  0.00  0.00    +0.000 A 
ATOM     13  C   UNL     1      -0.330   4.778   7.109  0.00  0.00    +0.000 A 
ATOM     14  C   UNL     1      -1.635   4.573   7.509  0.00  0.00    +0.000 A 
ATOM     15  C   UNL     1      -2.259   3.384   7.190  0.00  0.00    +0.000 A 
ATOM     16  C   UNL     1      -1.576   2.410   6.483  0.00  0.00    +0.000 A 
ENDBRANCH   9  11
ENDBRANCH   4   9
BRANCH   5  17
ATOM     17  O   UNL     1       1.644   0.148   7.363  0.00  0.00    +0.000 OA
ATOM     18  H   UNL     1       1.837  -0.733   7.771  0.00  0.00    +0.000 HD
ENDBRANCH   5  17
TORSDOF 4
ENDMDL
MODEL 5
REMARK VINA RESULT:      -4.9     12.042     13.835
REMARK  Name = ox2_shuffle_esm0_ligand
REMARK  5 active torsions:
REMARK  status: ('A' for Active; 'I' for Inactive)
REMARK    1  A    between atoms: C_1  and  O_2
REMARK    2  A    between atoms: O_2  and  C_3
REMARK    3  A    between atoms: C_6  and  C_7
REMARK    4  A    between atoms: C_7  and  C_9
REMARK    5  A    between atoms: C_15  and  O_16
REMARK                            x       y       z     vdW  Elec       q    Type
REMARK                         _______ _______ _______ _____ _____    ______ ____
ROOT
ATOM      1  C   UNL     1       5.039   5.703  -8.536  0.00  0.00    +0.000 A 
ATOM      2  C   UNL     1       4.280   6.550  -7.736  0.00  0.00    +0.000 A 
ATOM      3  C   UNL     1       4.823   7.069  -6.588  0.00  0.00    +0.000 A 
ATOM      4  C   UNL     1       6.114   6.770  -6.217  0.00  0.00    +0.000 A 
ATOM      5  C   UNL     1       6.864   5.908  -7.006  0.00  0.00    +0.000 A 
ATOM      6  C   UNL     1       6.323   5.388  -8.166  0.00  0.00    +0.000 A 
ENDROOT
BRANCH   1   8
ATOM      7  C   UNL     1       4.727   3.793  -9.993  0.00  0.00    +0.000 C 
ATOM      8  O   UNL     1       4.562   5.181  -9.687  0.00  0.00    +0.000 OA
ENDBRANCH   1   8
BRANCH   4   9
ATOM      9  C   UNL     1       6.751   7.324  -4.993  0.00  0.00    +0.000 C 
ATOM     10  O   UNL     1       7.331   8.375  -5.104  0.00  0.00    +0.000 OA
BRANCH   9  11
ATOM     11  C   UNL     1       6.674   6.726  -3.644  0.00  0.00    +0.000 A 
ATOM     12  C   UNL     1       5.501   6.881  -2.908  0.00  0.00    +0.000 A 
ATOM     13  C   UNL     1       5.378   6.321  -1.657  0.00  0.00    +0.000 A 
ATOM     14  C   UNL     1       6.417   5.598  -1.108  0.00  0.00    +0.000 A 
ATOM     15  C   UNL     1       7.578   5.430  -1.836  0.00  0.00    +0.000 A 
ATOM     16  C   UNL     1       7.693   5.986  -3.097  0.00  0.00    +0.000 A 
ENDBRANCH   9  11
ENDBRANCH   4   9
BRANCH   5  17
ATOM     17  O   UNL     1       8.129   5.597  -6.615  0.00  0.00    +0.000 OA
ATOM     18  H   UNL     1       8.318   4.715  -6.208  0.00  0.00    +0.000 HD
ENDBRANCH   5  17
TORSDOF 4
ENDMDL
MODEL 6
REMARK VINA RESULT:      -4.9      8.394     10.225
REMARK  Name = ox2_shuffle_esm0_ligand
REMARK  5 active torsions:
REMARK  status: ('A' for Active; 'I' for Inactive)
REMARK    1  A    between atoms: C_1  and  O_2
REMARK    2  A    between atoms: O_2  and  C_3
REMARK    3  A    between atoms: C_6  and  C_7
REMARK    4  A    between atoms: C_7  and  C_9
REMARK    5  A    between atoms: C_15  and  O_16
REMARK                            x       y       z     vdW  Elec       q    Type
REMARK                         _______ _______ _______ _____ _____    ______ ____
ROOT
ATOM      1  C   UNL     1       0.945   5.263  -1.170  0.00  0.00    +0.000 A 
ATOM      2  C   UNL     1      -0.329   5.608  -0.733  0.00  0.00    +0.000 A 
ATOM      3  C   UNL     1      -1.426   4.989  -1.277  0.00  0.00    +0.000 A 
ATOM      4  C   UNL     1      -1.286   4.022  -2.247  0.00  0.00    +0.000 A 
ATOM      5  C   UNL     1      -0.014   3.693  -2.696  0.00  0.00    +0.000 A 
ATOM      6  C   UNL     1       1.094   4.310  -2.146  0.00  0.00    +0.000 A 
ENDROOT
BRANCH   1   8
ATOM      7  C   UNL     1       3.247   5.966  -1.439  0.00  0.00    +0.000 C 
ATOM      8  O   UNL     1       2.060   5.825  -0.654  0.00  0.00    +0.000 OA
ENDBRANCH   1   8
BRANCH   4   9
ATOM      9  C   UNL     1      -2.443   3.311  -2.851  0.00  0.00    +0.000 C 
ATOM     10  O   UNL     1      -2.638   3.479  -4.028  0.00  0.00    +0.000 OA
BRANCH   9  11
ATOM     11  C   UNL     1      -3.330   2.366  -2.141  0.00  0.00    +0.000 A 
ATOM     12  C   UNL     1      -3.324   1.025  -2.521  0.00  0.00    +0.000 A 
ATOM     13  C   UNL     1      -4.117   0.108  -1.870  0.00  0.00    +0.000 A 
ATOM     14  C   UNL     1      -4.937   0.501  -0.832  0.00  0.00    +0.000 A 
ATOM     15  C   UNL     1      -4.940   1.825  -0.442  0.00  0.00    +0.000 A 
ATOM     16  C   UNL     1      -4.132   2.742  -1.091  0.00  0.00    +0.000 A 
ENDBRANCH   9  11
ENDBRANCH   4   9
BRANCH   5  17
ATOM     17  O   UNL     1       0.112   2.756  -3.674  0.00  0.00    +0.000 OA
ATOM     18  H   UNL     1      -0.263   2.928  -4.574  0.00  0.00    +0.000 HD
ENDBRANCH   5  17
TORSDOF 4
ENDMDL
MODEL 7
REMARK VINA RESULT:      -4.8      9.045     10.550
REMARK  Name = ox2_shuffle_esm0_ligand
REMARK  5 active torsions:
REMARK  status: ('A' for Active; 'I' for Inactive)
REMARK    1  A    between atoms: C_1  and  O_2
REMARK    2  A    between atoms: O_2  and  C_3
REMARK    3  A    between atoms: C_6  and  C_7
REMARK    4  A    between atoms: C_7  and  C_9
REMARK    5  A    between atoms: C_15  and  O_16
REMARK                            x       y       z     vdW  Elec       q    Type
REMARK                         _______ _______ _______ _____ _____    ______ ____
ROOT
ATOM      1  C   UNL     1      -3.911   2.782  -1.158  0.00  0.00    +0.000 A 
ATOM      2  C   UNL     1      -4.607   1.616  -0.859  0.00  0.00    +0.000 A 
ATOM      3  C   UNL     1      -5.670   1.662   0.007  0.00  0.00    +0.000 A 
ATOM      4  C   UNL     1      -6.066   2.849   0.581  0.00  0.00    +0.000 A 
ATOM      5  C   UNL     1      -5.357   4.009   0.296  0.00  0.00    +0.000 A 
ATOM      6  C   UNL     1      -4.290   3.968  -0.580  0.00  0.00    +0.000 A 
ENDROOT
BRANCH   1   8
ATOM      7  C   UNL     1      -2.488   1.622  -2.739  0.00  0.00    +0.000 C 
ATOM      8  O   UNL     1      -2.870   2.798  -2.020  0.00  0.00    +0.000 OA
ENDBRANCH   1   8
BRANCH   4   9
ATOM      9  C   UNL     1      -7.224   2.950   1.508  0.00  0.00    +0.000 C 
ATOM     10  O   UNL     1      -8.070   3.765   1.242  0.00  0.00    +0.000 OA
BRANCH   9  11
ATOM     11  C   UNL     1      -7.451   2.090   2.687  0.00  0.00    +0.000 A 
ATOM     12  C   UNL     1      -8.761   1.798   3.063  0.00  0.00    +0.000 A 
ATOM     13  C   UNL     1      -9.017   0.982   4.141  0.00  0.00    +0.000 A 
ATOM     14  C   UNL     1      -7.979   0.442   4.873  0.00  0.00    +0.000 A 
ATOM     15  C   UNL     1      -6.679   0.717   4.501  0.00  0.00    +0.000 A 
ATOM     16  C   UNL     1      -6.426   1.529   3.410  0.00  0.00    +0.000 A 
ENDBRANCH   9  11
ENDBRANCH   4   9
BRANCH   5  17
ATOM     17  O   UNL     1      -5.740   5.171   0.890  0.00  0.00    +0.000 OA
ATOM     18  H   UNL     1      -6.330   5.149   1.685  0.00  0.00    +0.000 HD
ENDBRANCH   5  17
TORSDOF 4
ENDMDL
MODEL 8
REMARK VINA RESULT:      -4.8      1.765      2.097
REMARK  Name = ox2_shuffle_esm0_ligand
REMARK  5 active torsions:
REMARK  status: ('A' for Active; 'I' for Inactive)
REMARK    1  A    between atoms: C_1  and  O_2
REMARK    2  A    between atoms: O_2  and  C_3
REMARK    3  A    between atoms: C_6  and  C_7
REMARK    4  A    between atoms: C_7  and  C_9
REMARK    5  A    between atoms: C_15  and  O_16
REMARK                            x       y       z     vdW  Elec       q    Type
REMARK                         _______ _______ _______ _____ _____    ______ ____
ROOT
ATOM      1  C   UNL     1      -1.283   2.580   6.863  0.00  0.00    +0.000 A 
ATOM      2  C   UNL     1      -0.925   1.769   5.792  0.00  0.00    +0.000 A 
ATOM      3  C   UNL     1       0.201   0.990   5.875  0.00  0.00    +0.000 A 
ATOM      4  C   UNL     1       0.981   0.991   7.009  0.00  0.00    +0.000 A 
ATOM      5  C   UNL     1       0.633   1.817   8.070  0.00  0.00    +0.000 A 
ATOM      6  C   UNL     1      -0.503   2.599   7.992  0.00  0.00    +0.000 A 
ENDROOT
BRANCH   1   8
ATOM      7  C   UNL     1      -2.614   4.353   7.840  0.00  0.00    +0.000 C 
ATOM      8  O   UNL     1      -2.393   3.351   6.843  0.00  0.00    +0.000 OA
ENDBRANCH   1   8
BRANCH   4   9
ATOM      9  C   UNL     1       2.198   0.149   7.152  0.00  0.00    +0.000 C 
ATOM     10  O   UNL     1       2.084  -0.878   7.771  0.00  0.00    +0.000 OA
BRANCH   9  11
ATOM     11  C   UNL     1       3.513   0.437   6.543  0.00  0.00    +0.000 A 
ATOM     12  C   UNL     1       4.661  -0.054   7.161  0.00  0.00    +0.000 A 
ATOM     13  C   UNL     1       5.904   0.172   6.614  0.00  0.00    +0.000 A 
ATOM     14  C   UNL     1       6.034   0.894   5.445  0.00  0.00    +0.000 A 
ATOM     15  C   UNL     1       4.901   1.374   4.821  0.00  0.00    +0.000 A 
ATOM     16  C   UNL     1       3.653   1.135   5.368  0.00  0.00    +0.000 A 
ENDBRANCH   9  11
ENDBRANCH   4   9
BRANCH   5  17
ATOM     17  O   UNL     1       1.427   1.831   9.175  0.00  0.00    +0.000 OA
ATOM     18  H   UNL     1       1.416   1.065   9.801  0.00  0.00    +0.000 HD
ENDBRANCH   5  17
TORSDOF 4
ENDMDL
MODEL 9
REMARK VINA RESULT:      -4.7     11.736     13.557
REMARK  Name = ox2_shuffle_esm0_ligand
REMARK  5 active torsions:
REMARK  status: ('A' for Active; 'I' for Inactive)
REMARK    1  A    between atoms: C_1  and  O_2
REMARK    2  A    between atoms: O_2  and  C_3
REMARK    3  A    between atoms: C_6  and  C_7
REMARK    4  A    between atoms: C_7  and  C_9
REMARK    5  A    between atoms: C_15  and  O_16
REMARK                            x       y       z     vdW  Elec       q    Type
REMARK                         _______ _______ _______ _____ _____    ______ ____
ROOT
ATOM      1  C   UNL     1       6.586   6.430  -1.862  0.00  0.00    +0.000 A 
ATOM      2  C   UNL     1       7.669   5.979  -2.607  0.00  0.00    +0.000 A 
ATOM      3  C   UNL     1       7.698   6.193  -3.962  0.00  0.00    +0.000 A 
ATOM      4  C   UNL     1       6.672   6.855  -4.597  0.00  0.00    +0.000 A 
ATOM      5  C   UNL     1       5.582   7.287  -3.854  0.00  0.00    +0.000 A 
ATOM      6  C   UNL     1       5.551   7.079  -2.489  0.00  0.00    +0.000 A 
ENDROOT
BRANCH   1   8
ATOM      7  C   UNL     1       7.691   6.310   0.291  0.00  0.00    +0.000 C 
ATOM      8  O   UNL     1       6.515   6.266  -0.522  0.00  0.00    +0.000 OA
ENDBRANCH   1   8
BRANCH   4   9
ATOM      9  C   UNL     1       6.670   7.127  -6.060  0.00  0.00    +0.000 C 
ATOM     10  O   UNL     1       6.824   8.271  -6.405  0.00  0.00    +0.000 OA
BRANCH   9  11
ATOM     11  C   UNL     1       6.561   6.103  -7.118  0.00  0.00    +0.000 A 
ATOM     12  C   UNL     1       7.675   5.317  -7.409  0.00  0.00    +0.000 A 
ATOM     13  C   UNL     1       7.610   4.336  -8.372  0.00  0.00    +0.000 A 
ATOM     14  C   UNL     1       6.440   4.116  -9.070  0.00  0.00    +0.000 A 
ATOM     15  C   UNL     1       5.329   4.881  -8.779  0.00  0.00    +0.000 A 
ATOM     16  C   UNL     1       5.396   5.859  -7.803  0.00  0.00    +0.000 A 
ENDBRANCH   9  11
ENDBRANCH   4   9
BRANCH   5  17
ATOM     17  O   UNL     1       4.561   7.916  -4.496  0.00  0.00    +0.000 OA
ATOM     18  H   UNL     1       4.095   7.465  -5.244  0.00  0.00    +0.000 HD
ENDBRANCH   5  17
TORSDOF 4
ENDMDL
