REMARK  Name = ox1_orig_f12_ligand
REMARK  5 active torsions:
REMARK  status: ('A' for Active; 'I' for Inactive)
REMARK    1  A    between atoms: C_1  and  O_2
REMARK    2  A    between atoms: O_2  and  C_3
REMARK    3  A    between atoms: C_6  and  C_7
REMARK    4  A    between atoms: C_7  and  C_9
REMARK    5  A    between atoms: C_15  and  O_16
REMARK                            x       y       z     vdW  Elec       q    Type
REMARK                         _______ _______ _______ _____ _____    ______ ____
ROOT
ATOM      1  C   UNL     1      -3.336  -3.667   2.494  0.00  0.00    +0.000 A 
ATOM      2  C   UNL     1      -4.512  -3.186   1.928  0.00  0.00    +0.000 A 
ATOM      3  C   UNL     1      -4.492  -2.016   1.182  0.00  0.00    +0.000 A 
ATOM      4  C   UNL     1      -3.306  -1.309   1.003  0.00  0.00    +0.000 A 
ATOM      5  C   UNL     1      -2.132  -1.799   1.566  0.00  0.00    +0.000 A 
ATOM      6  C   UNL     1      -2.154  -2.973   2.302  0.00  0.00    +0.000 A 
ENDROOT
BRANCH   1   8
ATOM      7  C   UNL     1      -2.221  -5.384   3.756  0.00  0.00    +0.000 C 
ATOM      8  O   UNL     1      -3.400  -4.823   3.225  0.00  0.00    +0.000 OA
ENDBRANCH   1   8
BRANCH   4   9
ATOM      9  C   UNL     1      -3.260  -0.040   0.195  0.00  0.00    +0.000 C 
ATOM     10  O   UNL     1      -2.174   0.454  -0.026  0.00  0.00    +0.000 OA
BRANCH   9  11
ATOM     11  C   UNL     1      -4.467   0.606  -0.369  0.00  0.00    +0.000 A 
ATOM     12  C   UNL     1      -5.632   0.751   0.373  0.00  0.00    +0.000 A 
ATOM     13  C   UNL     1      -6.745   1.348  -0.176  0.00  0.00    +0.000 A 
ATOM     14  C   UNL     1      -6.711   1.815  -1.480  0.00  0.00    +0.000 A 
ATOM     15  C   UNL     1      -5.548   1.696  -2.229  0.00  0.00    +0.000 A 
ATOM     16  C   UNL     1      -4.412   1.110  -1.676  0.00  0.00    +0.000 A 
ENDBRANCH   9  11
ENDBRANCH   4   9
BRANCH   5  17
ATOM     17  O   UNL     1      -0.977  -1.114   1.377  0.00  0.00    +0.000 OA
ATOM     18  H   UNL     1      -0.133  -1.449   1.770  0.00  0.00    +0.000 HD
ENDBRANCH   5  17
TORSDOF 4
