REMARK  Name = /Users/cafierom/python_mac/peptidebuilder/runs/oxybenzone/dock/ox1_orig_f12_rf3cof/ox1_orig_f12_rf3cof_protein.pdb
REMARK                            x       y       z     vdW  Elec       q    Type
REMARK                         _______ _______ _______ _____ _____    ______ ____
ATOM      1  N   PHE A   1       1.690   8.301  -2.666  0.00  0.00    +0.000 NA
ATOM      2  CA  PHE A   1       2.351   8.137  -1.354  0.00  0.00    +0.000 C 
ATOM      3  C   PHE A   1       3.407   7.063  -1.307  0.00  0.00    +0.000 C 
ATOM      4  O   PHE A   1       4.002   6.846  -0.251  0.00  0.00    +0.000 OA
ATOM      5  CB  PHE A   1       1.307   7.899  -0.271  0.00  0.00    +0.000 C 
ATOM      6  CG  PHE A   1       0.429   9.067  -0.033  0.00  0.00    +0.000 A 
ATOM      7  CD1 PHE A   1      -0.732   9.227  -0.710  0.00  0.00    +0.000 A 
ATOM      8  CD2 PHE A   1       0.813  10.064   0.884  0.00  0.00    +0.000 A 
ATOM      9  CE1 PHE A   1      -1.537  10.299  -0.491  0.00  0.00    +0.000 A 
ATOM     10  CE2 PHE A   1       0.002  11.140   1.092  0.00  0.00    +0.000 A 
ATOM     11  CZ  PHE A   1      -1.183  11.301   0.407  0.00  0.00    +0.000 A 
ATOM     12  N   GLY A   2       3.623   6.445  -2.386  0.00  0.00    +0.000 N 
ATOM     13  CA  GLY A   2       4.641   5.413  -2.430  0.00  0.00    +0.000 C 
ATOM     14  C   GLY A   2       4.168   4.087  -1.861  0.00  0.00    +0.000 C 
ATOM     15  O   GLY A   2       2.982   3.856  -1.690  0.00  0.00    +0.000 OA
ATOM     16  N   ARG A   3       5.126   3.216  -1.547  0.00  0.00    +0.000 N 
ATOM     17  CA  ARG A   3       4.795   1.911  -1.028  0.00  0.00    +0.000 C 
ATOM     18  C   ARG A   3       4.359   2.014   0.417  0.00  0.00    +0.000 C 
ATOM     19  O   ARG A   3       4.937   2.737   1.218  0.00  0.00    +0.000 OA
ATOM     20  CB  ARG A   3       5.980   0.951  -1.171  0.00  0.00    +0.000 C 
ATOM     21  CG  ARG A   3       6.290   0.618  -2.613  0.00  0.00    +0.000 C 
ATOM     22  CD  ARG A   3       7.359  -0.421  -2.754  0.00  0.00    +0.000 C 
ATOM     23  NE  ARG A   3       6.966  -1.714  -2.188  0.00  0.00    +0.000 NA
ATOM     24  CZ  ARG A   3       6.198  -2.613  -2.802  0.00  0.00    +0.000 C 
ATOM     25  NH1 ARG A   3       5.721  -2.403  -4.005  0.00  0.00    +0.000 N 
ATOM     26  NH2 ARG A   3       5.921  -3.746  -2.171  0.00  0.00    +0.000 NA
ATOM     27  N   GLY A   4       3.347   1.249   0.746  0.00  0.00    +0.000 N 
ATOM     28  CA  GLY A   4       2.814   1.308   2.081  0.00  0.00    +0.000 C 
ATOM     29  C   GLY A   4       3.518   0.404   3.046  0.00  0.00    +0.000 C 
ATOM     30  O   GLY A   4       3.491  -0.807   2.958  0.00  0.00    +0.000 OA
ATOM     31  N   LYS A   5       4.164   1.027   4.008  0.00  0.00    +0.000 N 
ATOM     32  CA  LYS A   5       4.891   0.291   5.049  0.00  0.00    +0.000 C 
ATOM     33  C   LYS A   5       4.521   0.821   6.413  0.00  0.00    +0.000 C 
ATOM     34  O   LYS A   5       5.141   0.480   7.416  0.00  0.00    +0.000 OA
ATOM     35  CB  LYS A   5       6.390   0.419   4.871  0.00  0.00    +0.000 C 
ATOM     36  CG  LYS A   5       6.947  -0.137   3.572  0.00  0.00    +0.000 C 
ATOM     37  CD  LYS A   5       7.100  -1.639   3.604  0.00  0.00    +0.000 C 
ATOM     38  CE  LYS A   5       8.208  -2.109   4.501  0.00  0.00    +0.000 C 
ATOM     39  NZ  LYS A   5       8.310  -3.583   4.468  0.00  0.00    +0.000 N 
ATOM     40  N   GLY A   6       3.520   1.645   6.456  0.00  0.00    +0.000 N 
ATOM     41  CA  GLY A   6       3.261   2.388   7.683  0.00  0.00    +0.000 C 
ATOM     42  C   GLY A   6       2.429   1.734   8.740  0.00  0.00    +0.000 C 
ATOM     43  O   GLY A   6       2.339   2.269   9.848  0.00  0.00    +0.000 OA
ATOM     44  N   GLY A   7       1.811   0.628   8.441  0.00  0.00    +0.000 N 
ATOM     45  CA  GLY A   7       0.929   0.017   9.394  0.00  0.00    +0.000 C 
ATOM     46  C   GLY A   7       1.208  -1.453   9.613  0.00  0.00    +0.000 C 
ATOM     47  O   GLY A   7       2.207  -1.990   9.133  0.00  0.00    +0.000 OA
ATOM     48  N   GLY A   8       0.308  -2.074  10.292  0.00  0.00    +0.000 N 
ATOM     49  CA  GLY A   8       0.567  -3.444  10.737  0.00  0.00    +0.000 C 
ATOM     50  C   GLY A   8       0.409  -4.562   9.737  0.00  0.00    +0.000 C 
ATOM     51  O   GLY A   8       0.967  -5.640   9.932  0.00  0.00    +0.000 OA
ATOM     52  N   ASP A   9      -0.298  -4.324   8.660  0.00  0.00    +0.000 N 
ATOM     53  CA  ASP A   9      -0.600  -5.391   7.715  0.00  0.00    +0.000 C 
ATOM     54  C   ASP A   9      -0.287  -4.986   6.297  0.00  0.00    +0.000 C 
ATOM     55  O   ASP A   9      -0.831  -3.999   5.791  0.00  0.00    +0.000 OA
ATOM     56  CB  ASP A   9      -2.080  -5.757   7.732  0.00  0.00    +0.000 C 
ATOM     57  CG  ASP A   9      -2.571  -6.305   9.057  0.00  0.00    +0.000 C 
ATOM     58  OD1 ASP A   9      -1.801  -6.993   9.748  0.00  0.00    +0.000 OA
ATOM     59  OD2 ASP A   9      -3.737  -6.064   9.368  0.00  0.00    +0.000 OA
ATOM     60  N   GLY A  10       0.542  -5.773   5.635  0.00  0.00    +0.000 N 
ATOM     61  CA  GLY A  10       0.759  -5.618   4.225  0.00  0.00    +0.000 C 
ATOM     62  C   GLY A  10       1.543  -4.360   3.829  0.00  0.00    +0.000 C 
ATOM     63  O   GLY A  10       1.878  -3.510   4.638  0.00  0.00    +0.000 OA
ATOM     64  N   GLU A  11       1.794  -4.307   2.524  0.00  0.00    +0.000 N 
ATOM     65  CA  GLU A  11       2.479  -3.174   1.929  0.00  0.00    +0.000 C 
ATOM     66  C   GLU A  11       1.570  -2.571   0.894  0.00  0.00    +0.000 C 
ATOM     67  O   GLU A  11       0.822  -3.268   0.230  0.00  0.00    +0.000 OA
ATOM     68  CB  GLU A  11       3.733  -3.614   1.174  0.00  0.00    +0.000 C 
ATOM     69  CG  GLU A  11       4.810  -4.261   2.005  0.00  0.00    +0.000 C 
ATOM     70  CD  GLU A  11       6.047  -4.502   1.150  0.00  0.00    +0.000 C 
ATOM     71  OE1 GLU A  11       7.130  -4.084   1.530  0.00  0.00    +0.000 OA
ATOM     72  OE2 GLU A  11       5.896  -5.127   0.067  0.00  0.00    +0.000 OA
ATOM     73  N   GLY A  12       1.671  -1.285   0.701  0.00  0.00    +0.000 N 
ATOM     74  CA  GLY A  12       0.985  -0.652  -0.395  0.00  0.00    +0.000 C 
ATOM     75  C   GLY A  12       1.635  -0.993  -1.711  0.00  0.00    +0.000 C 
ATOM     76  O   GLY A  12       2.801  -1.412  -1.791  0.00  0.00    +0.000 OA
ATOM     77  N   ILE A  13       0.880  -0.814  -2.784  0.00  0.00    +0.000 N 
ATOM     78  CA  ILE A  13       1.386  -1.068  -4.118  0.00  0.00    +0.000 C 
ATOM     79  C   ILE A  13       1.264   0.216  -4.907  0.00  0.00    +0.000 C 
ATOM     80  O   ILE A  13       0.177   0.700  -5.159  0.00  0.00    +0.000 OA
ATOM     81  CB  ILE A  13       0.592  -2.188  -4.825  0.00  0.00    +0.000 C 
ATOM     82  CG1 ILE A  13       0.726  -3.474  -4.013  0.00  0.00    +0.000 C 
ATOM     83  CG2 ILE A  13       1.078  -2.343  -6.242  0.00  0.00    +0.000 C 
ATOM     84  CD1 ILE A  13      -0.211  -4.587  -4.443  0.00  0.00    +0.000 C 
ATOM     85  N   GLY A  14       2.401   0.751  -5.254  0.00  0.00    +0.000 N 
ATOM     86  CA  GLY A  14       2.442   1.979  -6.027  0.00  0.00    +0.000 C 
ATOM     87  C   GLY A  14       2.184   3.210  -5.243  0.00  0.00    +0.000 C 
ATOM     88  O   GLY A  14       2.809   4.250  -5.412  0.00  0.00    +0.000 OA
ATOM     89  N   GLY A  15       1.251   3.180  -4.371  0.00  0.00    +0.000 N 
ATOM     90  CA  GLY A  15       0.860   4.314  -3.532  0.00  0.00    +0.000 C 
ATOM     91  C   GLY A  15      -0.375   3.911  -2.758  0.00  0.00    +0.000 C 
ATOM     92  O   GLY A  15      -1.158   3.089  -3.193  0.00  0.00    +0.000 OA
ATOM     93  N   GLY A  16      -0.519   4.513  -1.623  0.00  0.00    +0.000 N 
ATOM     94  CA  GLY A  16      -1.704   4.240  -0.826  0.00  0.00    +0.000 C 
ATOM     95  C   GLY A  16      -1.392   3.911   0.605  0.00  0.00    +0.000 C 
ATOM     96  O   GLY A  16      -0.311   4.189   1.106  0.00  0.00    +0.000 OA
ATOM     97  N   LEU A  17      -2.374   3.299   1.221  0.00  0.00    +0.000 N 
ATOM     98  CA  LEU A  17      -2.246   3.009   2.661  0.00  0.00    +0.000 C 
ATOM     99  C   LEU A  17      -1.259   1.896   2.959  0.00  0.00    +0.000 C 
ATOM    100  O   LEU A  17      -1.197   0.897   2.244  0.00  0.00    +0.000 OA
ATOM    101  CB  LEU A  17      -3.569   2.577   3.235  0.00  0.00    +0.000 C 
ATOM    102  CG  LEU A  17      -4.758   3.482   3.367  0.00  0.00    +0.000 C 
ATOM    103  CD1 LEU A  17      -5.445   3.280   4.649  0.00  0.00    +0.000 C 
ATOM    104  CD2 LEU A  17      -4.520   4.789   3.197  0.00  0.00    +0.000 C 
ATOM    105  N   GLY A  18      -0.590   2.037   4.067  0.00  0.00    +0.000 N 
ATOM    106  CA  GLY A  18       0.247   0.987   4.585  0.00  0.00    +0.000 C 
ATOM    107  C   GLY A  18      -0.469   0.223   5.666  0.00  0.00    +0.000 C 
ATOM    108  O   GLY A  18      -0.588   0.693   6.783  0.00  0.00    +0.000 OA
ATOM    109  N   GLY A  19      -0.944  -0.978   5.313  0.00  0.00    +0.000 N 
ATOM    110  CA  GLY A  19      -1.617  -1.819   6.272  0.00  0.00    +0.000 C 
ATOM    111  C   GLY A  19      -2.791  -1.166   6.943  0.00  0.00    +0.000 C 
ATOM    112  O   GLY A  19      -3.429  -0.284   6.407  0.00  0.00    +0.000 OA
ATOM    113  N   SER A  20      -3.048  -1.622   8.107  0.00  0.00    +0.000 N 
ATOM    114  CA  SER A  20      -4.149  -1.091   8.881  0.00  0.00    +0.000 C 
ATOM    115  C   SER A  20      -3.820   0.180   9.622  0.00  0.00    +0.000 C 
ATOM    116  O   SER A  20      -4.726   0.827  10.134  0.00  0.00    +0.000 OA
ATOM    117  CB  SER A  20      -4.616  -2.120   9.930  0.00  0.00    +0.000 C 
ATOM    118  OG  SER A  20      -5.045  -3.301   9.289  0.00  0.00    +0.000 OA
ATOM    119  N   GLY A  21      -2.580   0.486   9.723  0.00  0.00    +0.000 N 
ATOM    120  CA  GLY A  21      -2.125   1.567  10.558  0.00  0.00    +0.000 C 
ATOM    121  C   GLY A  21      -2.027   2.952   9.970  0.00  0.00    +0.000 C 
ATOM    122  O   GLY A  21      -1.676   3.901  10.680  0.00  0.00    +0.000 OA
ATOM    123  N   GLY A  22      -2.273   3.070   8.677  0.00  0.00    +0.000 N 
ATOM    124  CA  GLY A  22      -2.256   4.399   8.081  0.00  0.00    +0.000 C 
ATOM    125  C   GLY A  22      -1.464   4.472   6.793  0.00  0.00    +0.000 C 
ATOM    126  O   GLY A  22      -1.310   3.494   6.087  0.00  0.00    +0.000 OA
ATOM    127  N   TRP A  23      -0.993   5.645   6.496  0.00  0.00    +0.000 N 
ATOM    128  CA  TRP A  23      -0.319   5.927   5.231  0.00  0.00    +0.000 C 
ATOM    129  C   TRP A  23       1.063   5.344   5.165  0.00  0.00    +0.000 C 
ATOM    130  O   TRP A  23       1.867   5.478   6.102  0.00  0.00    +0.000 OA
ATOM    131  CB  TRP A  23      -0.243   7.438   5.034  0.00  0.00    +0.000 C 
ATOM    132  CG  TRP A  23      -1.567   8.064   4.897  0.00  0.00    +0.000 C 
ATOM    133  CD1 TRP A  23      -2.239   8.720   5.870  0.00  0.00    +0.000 C 
ATOM    134  CD2 TRP A  23      -2.416   8.094   3.732  0.00  0.00    +0.000 A 
ATOM    135  NE1 TRP A  23      -3.472   9.182   5.404  0.00  0.00    +0.000 NA
ATOM    136  CE2 TRP A  23      -3.585   8.798   4.113  0.00  0.00    +0.000 A 
ATOM    137  CE3 TRP A  23      -2.293   7.568   2.437  0.00  0.00    +0.000 A 
ATOM    138  CZ2 TRP A  23      -4.633   8.988   3.208  0.00  0.00    +0.000 A 
ATOM    139  CZ3 TRP A  23      -3.317   7.767   1.553  0.00  0.00    +0.000 A 
ATOM    140  CH2 TRP A  23      -4.479   8.494   1.929  0.00  0.00    +0.000 A 
ATOM    141  N   GLY A  24       1.347   4.743   4.012  0.00  0.00    +0.000 N 
ATOM    142  CA  GLY A  24       2.684   4.261   3.764  0.00  0.00    +0.000 C 
ATOM    143  C   GLY A  24       3.558   5.348   3.233  0.00  0.00    +0.000 C 
ATOM    144  O   GLY A  24       3.207   6.509   3.117  0.00  0.00    +0.000 OA
ATOM    145  N   ASP A  25       4.770   4.947   2.844  0.00  0.00    +0.000 N 
ATOM    146  CA  ASP A  25       5.770   5.883   2.344  0.00  0.00    +0.000 C 
ATOM    147  C   ASP A  25       6.290   5.396   1.013  0.00  0.00    +0.000 C 
ATOM    148  O   ASP A  25       7.075   4.446   0.952  0.00  0.00    +0.000 OA
ATOM    149  CB  ASP A  25       6.897   5.990   3.391  0.00  0.00    +0.000 C 
ATOM    150  CG  ASP A  25       7.928   7.008   3.058  0.00  0.00    +0.000 C 
ATOM    151  OD1 ASP A  25       7.855   7.665   2.016  0.00  0.00    +0.000 OA
ATOM    152  OD2 ASP A  25       8.843   7.142   3.847  0.00  0.00    +0.000 OA
ATOM    153  H   PHE A   1       2.396   8.460  -3.385  0.00  0.00    +0.000 HD
ATOM    154  H   PHE A   1       1.056   9.099  -2.630  0.00  0.00    +0.000 HD
ATOM    155  H   GLY A   2       3.103   6.662  -3.193  0.00  0.00    +0.000 HD
ATOM    156  H   ARG A   3       6.070   3.466  -1.670  0.00  0.00    +0.000 HD
ATOM    157  H   ARG A   3       5.925  -1.563  -4.476  0.00  0.00    +0.000 HD
ATOM    158  H   ARG A   3       5.159  -3.086  -4.438  0.00  0.00    +0.000 HD
ATOM    159  H   ARG A   3       5.356  -4.425  -2.605  0.00  0.00    +0.000 HD
ATOM    160  H   ARG A   3       6.281  -3.908  -1.269  0.00  0.00    +0.000 HD
ATOM    161  H   ARG A   3       5.460  -4.594  -2.365  0.00  0.00    +0.000 HD
ATOM    162  H   GLY A   4       2.953   0.637   0.083  0.00  0.00    +0.000 HD
ATOM    163  H   LYS A   5       4.160   2.011   4.030  0.00  0.00    +0.000 HD
ATOM    164  H   LYS A   5       7.434  -3.992   4.792  0.00  0.00    +0.000 HD
ATOM    165  H   LYS A   5       9.072  -3.885   5.076  0.00  0.00    +0.000 HD
ATOM    166  H   LYS A   5       8.495  -3.890   3.513  0.00  0.00    +0.000 HD
ATOM    167  H   GLY A   6       2.942   1.767   5.669  0.00  0.00    +0.000 HD
ATOM    168  H   GLY A   7       1.949   0.210   7.560  0.00  0.00    +0.000 HD
ATOM    169  H   GLY A   8      -0.545  -1.633  10.509  0.00  0.00    +0.000 HD
ATOM    170  H   ASP A   9      -0.629  -3.413   8.487  0.00  0.00    +0.000 HD
ATOM    171  H   ASP A   9      -0.922  -7.144   9.461  0.00  0.00    +0.000 HD
ATOM    172  H   GLY A  10       1.022  -6.482   6.120  0.00  0.00    +0.000 HD
ATOM    173  H   GLU A  11       1.509  -5.053   1.949  0.00  0.00    +0.000 HD
ATOM    174  H   GLU A  11       7.195  -3.624   2.344  0.00  0.00    +0.000 HD
ATOM    175  H   GLY A  12       2.221  -0.742   1.311  0.00  0.00    +0.000 HD
ATOM    176  H   ILE A  13      -0.047  -0.501  -2.673  0.00  0.00    +0.000 HD
ATOM    177  H   GLY A  14       3.243   0.316  -4.988  0.00  0.00    +0.000 HD
ATOM    178  H   GLY A  15       0.760   2.334  -4.255  0.00  0.00    +0.000 HD
ATOM    179  H   GLY A  16       0.163   5.147  -1.303  0.00  0.00    +0.000 HD
ATOM    180  H   LEU A  17      -3.185   3.037   0.729  0.00  0.00    +0.000 HD
ATOM    181  H   GLY A  18      -0.658   2.884   4.564  0.00  0.00    +0.000 HD
ATOM    182  H   GLY A  19      -0.832  -1.291   4.386  0.00  0.00    +0.000 HD
ATOM    183  H   SER A  20      -2.491  -2.342   8.482  0.00  0.00    +0.000 HD
ATOM    184  H   SER A  20      -5.785  -3.096   8.696  0.00  0.00    +0.000 HD
ATOM    185  H   GLY A  21      -1.917  -0.034   9.214  0.00  0.00    +0.000 HD
ATOM    186  H   GLY A  22      -2.464   2.276   8.128  0.00  0.00    +0.000 HD
ATOM    187  H   TRP A  23      -1.094   6.374   7.150  0.00  0.00    +0.000 HD
ATOM    188  H   GLY A  24       0.646   4.628   3.330  0.00  0.00    +0.000 HD
ATOM    189  H   ASP A  25       4.996   3.990   2.896  0.00  0.00    +0.000 HD
ATOM    190  H   ASP A  25       8.867   6.626   4.629  0.00  0.00    +0.000 HD
TER 
