MODEL 1
REMARK VINA RESULT:      -4.6      0.000      0.000
REMARK  Name = ox1_orig_f12_ligand
REMARK  5 active torsions:
REMARK  status: ('A' for Active; 'I' for Inactive)
REMARK    1  A    between atoms: C_1  and  O_2
REMARK    2  A    between atoms: O_2  and  C_3
REMARK    3  A    between atoms: C_6  and  C_7
REMARK    4  A    between atoms: C_7  and  C_9
REMARK    5  A    between atoms: C_15  and  O_16
REMARK                            x       y       z     vdW  Elec       q    Type
REMARK                         _______ _______ _______ _____ _____    ______ ____
ROOT
ATOM      1  C   UNL     1      -5.928  -1.985   4.670  0.00  0.00    +0.000 A 
ATOM      2  C   UNL     1      -5.581  -0.984   3.768  0.00  0.00    +0.000 A 
ATOM      3  C   UNL     1      -4.449  -1.128   2.978  0.00  0.00    +0.000 A 
ATOM      4  C   UNL     1      -3.648  -2.261   3.086  0.00  0.00    +0.000 A 
ATOM      5  C   UNL     1      -4.004  -3.262   3.985  0.00  0.00    +0.000 A 
ATOM      6  C   UNL     1      -5.141  -3.119   4.765  0.00  0.00    +0.000 A 
ENDROOT
BRANCH   1   8
ATOM      7  C   UNL     1      -7.010  -0.940   6.546  0.00  0.00    +0.000 C 
ATOM      8  O   UNL     1      -7.051  -1.802   5.432  0.00  0.00    +0.000 OA
ENDBRANCH   1   8
BRANCH   4   9
ATOM      9  C   UNL     1      -2.418  -2.440   2.237  0.00  0.00    +0.000 C 
ATOM     10  O   UNL     1      -1.338  -2.426   2.790  0.00  0.00    +0.000 OA
BRANCH   9  11
ATOM     11  C   UNL     1      -2.469  -2.667   0.775  0.00  0.00    +0.000 A 
ATOM     12  C   UNL     1      -2.609  -3.940   0.238  0.00  0.00    +0.000 A 
ATOM     13  C   UNL     1      -2.646  -4.128  -1.126  0.00  0.00    +0.000 A 
ATOM     14  C   UNL     1      -2.546  -3.041  -1.980  0.00  0.00    +0.000 A 
ATOM     15  C   UNL     1      -2.425  -1.759  -1.459  0.00  0.00    +0.000 A 
ATOM     16  C   UNL     1      -2.405  -1.559  -0.081  0.00  0.00    +0.000 A 
ENDBRANCH   9  11
ENDBRANCH   4   9
BRANCH   5  17
ATOM     17  O   UNL     1      -3.228  -4.370   4.076  0.00  0.00    +0.000 OA
ATOM     18  H   UNL     1      -3.190  -5.011   3.324  0.00  0.00    +0.000 HD
ENDBRANCH   5  17
TORSDOF 4
ENDMDL
MODEL 2
REMARK VINA RESULT:      -4.2      1.958      6.006
REMARK  Name = ox1_orig_f12_ligand
REMARK  5 active torsions:
REMARK  status: ('A' for Active; 'I' for Inactive)
REMARK    1  A    between atoms: C_1  and  O_2
REMARK    2  A    between atoms: O_2  and  C_3
REMARK    3  A    between atoms: C_6  and  C_7
REMARK    4  A    between atoms: C_7  and  C_9
REMARK    5  A    between atoms: C_15  and  O_16
REMARK                            x       y       z     vdW  Elec       q    Type
REMARK                         _______ _______ _______ _____ _____    ______ ____
ROOT
ATOM      1  C   UNL     1      -2.559  -1.842  -2.172  0.00  0.00    +0.000 A 
ATOM      2  C   UNL     1      -2.783  -0.721  -1.380  0.00  0.00    +0.000 A 
ATOM      3  C   UNL     1      -2.762  -0.836   0.003  0.00  0.00    +0.000 A 
ATOM      4  C   UNL     1      -2.531  -2.068   0.609  0.00  0.00    +0.000 A 
ATOM      5  C   UNL     1      -2.301  -3.184  -0.190  0.00  0.00    +0.000 A 
ATOM      6  C   UNL     1      -2.312  -3.063  -1.570  0.00  0.00    +0.000 A 
ENDROOT
BRANCH   1   8
ATOM      7  C   UNL     1      -3.825  -1.506  -4.189  0.00  0.00    +0.000 C 
ATOM      8  O   UNL     1      -2.591  -1.685  -3.532  0.00  0.00    +0.000 OA
ENDBRANCH   1   8
BRANCH   4   9
ATOM      9  C   UNL     1      -2.500  -2.217   2.106  0.00  0.00    +0.000 C 
ATOM     10  O   UNL     1      -1.428  -2.425   2.635  0.00  0.00    +0.000 OA
BRANCH   9  11
ATOM     11  C   UNL     1      -3.703  -2.083   2.959  0.00  0.00    +0.000 A 
ATOM     12  C   UNL     1      -4.505  -0.950   2.917  0.00  0.00    +0.000 A 
ATOM     13  C   UNL     1      -5.615  -0.845   3.726  0.00  0.00    +0.000 A 
ATOM     14  C   UNL     1      -5.945  -1.876   4.590  0.00  0.00    +0.000 A 
ATOM     15  C   UNL     1      -5.165  -3.025   4.630  0.00  0.00    +0.000 A 
ATOM     16  C   UNL     1      -4.052  -3.147   3.802  0.00  0.00    +0.000 A 
ENDBRANCH   9  11
ENDBRANCH   4   9
BRANCH   5  17
ATOM     17  O   UNL     1      -2.062  -4.379   0.405  0.00  0.00    +0.000 OA
ATOM     18  H   UNL     1      -2.192  -5.219  -0.102  0.00  0.00    +0.000 HD
ENDBRANCH   5  17
TORSDOF 4
ENDMDL
MODEL 3
REMARK VINA RESULT:      -4.2      1.284      2.097
REMARK  Name = ox1_orig_f12_ligand
REMARK  5 active torsions:
REMARK  status: ('A' for Active; 'I' for Inactive)
REMARK    1  A    between atoms: C_1  and  O_2
REMARK    2  A    between atoms: O_2  and  C_3
REMARK    3  A    between atoms: C_6  and  C_7
REMARK    4  A    between atoms: C_7  and  C_9
REMARK    5  A    between atoms: C_15  and  O_16
REMARK                            x       y       z     vdW  Elec       q    Type
REMARK                         _______ _______ _______ _____ _____    ______ ____
ROOT
ATOM      1  C   UNL     1      -5.956  -3.475   4.376  0.00  0.00    +0.000 A 
ATOM      2  C   UNL     1      -5.414  -4.486   3.590  0.00  0.00    +0.000 A 
ATOM      3  C   UNL     1      -4.289  -4.232   2.817  0.00  0.00    +0.000 A 
ATOM      4  C   UNL     1      -3.703  -2.969   2.810  0.00  0.00    +0.000 A 
ATOM      5  C   UNL     1      -4.247  -1.964   3.603  0.00  0.00    +0.000 A 
ATOM      6  C   UNL     1      -5.364  -2.224   4.382  0.00  0.00    +0.000 A 
ENDROOT
BRANCH   1   8
ATOM      7  C   UNL     1      -7.301  -3.080   6.330  0.00  0.00    +0.000 C 
ATOM      8  O   UNL     1      -7.067  -3.766   5.121  0.00  0.00    +0.000 OA
ENDBRANCH   1   8
BRANCH   4   9
ATOM      9  C   UNL     1      -2.482  -2.673   1.982  0.00  0.00    +0.000 C 
ATOM     10  O   UNL     1      -1.418  -2.569   2.556  0.00  0.00    +0.000 OA
BRANCH   9  11
ATOM     11  C   UNL     1      -2.514  -2.540   0.508  0.00  0.00    +0.000 A 
ATOM     12  C   UNL     1      -2.539  -1.298  -0.113  0.00  0.00    +0.000 A 
ATOM     13  C   UNL     1      -2.578  -1.200  -1.487  0.00  0.00    +0.000 A 
ATOM     14  C   UNL     1      -2.588  -2.346  -2.265  0.00  0.00    +0.000 A 
ATOM     15  C   UNL     1      -2.543  -3.596  -1.661  0.00  0.00    +0.000 A 
ATOM     16  C   UNL     1      -2.486  -3.704  -0.273  0.00  0.00    +0.000 A 
ENDBRANCH   9  11
ENDBRANCH   4   9
BRANCH   5  17
ATOM     17  O   UNL     1      -3.664  -0.740   3.603  0.00  0.00    +0.000 OA
ATOM     18  H   UNL     1      -3.108  -0.457   2.836  0.00  0.00    +0.000 HD
ENDBRANCH   5  17
TORSDOF 4
ENDMDL
MODEL 4
REMARK VINA RESULT:      -4.2      2.730      4.899
REMARK  Name = ox1_orig_f12_ligand
REMARK  5 active torsions:
REMARK  status: ('A' for Active; 'I' for Inactive)
REMARK    1  A    between atoms: C_1  and  O_2
REMARK    2  A    between atoms: O_2  and  C_3
REMARK    3  A    between atoms: C_6  and  C_7
REMARK    4  A    between atoms: C_7  and  C_9
REMARK    5  A    between atoms: C_15  and  O_16
REMARK                            x       y       z     vdW  Elec       q    Type
REMARK                         _______ _______ _______ _____ _____    ______ ____
ROOT
ATOM      1  C   UNL     1      -2.768  -5.340   1.528  0.00  0.00    +0.000 A 
ATOM      2  C   UNL     1      -4.100  -4.954   1.427  0.00  0.00    +0.000 A 
ATOM      3  C   UNL     1      -4.464  -3.645   1.710  0.00  0.00    +0.000 A 
ATOM      4  C   UNL     1      -3.508  -2.713   2.105  0.00  0.00    +0.000 A 
ATOM      5  C   UNL     1      -2.176  -3.104   2.196  0.00  0.00    +0.000 A 
ATOM      6  C   UNL     1      -1.815  -4.409   1.904  0.00  0.00    +0.000 A 
ENDROOT
BRANCH   1   8
ATOM      7  C   UNL     1      -1.115  -6.997   0.970  0.00  0.00    +0.000 C 
ATOM      8  O   UNL     1      -2.452  -6.642   1.243  0.00  0.00    +0.000 OA
ENDBRANCH   1   8
BRANCH   4   9
ATOM      9  C   UNL     1      -3.879  -1.287   2.412  0.00  0.00    +0.000 C 
ATOM     10  O   UNL     1      -3.662  -0.872   3.532  0.00  0.00    +0.000 OA
BRANCH   9  11
ATOM     11  C   UNL     1      -4.457  -0.365   1.408  0.00  0.00    +0.000 A 
ATOM     12  C   UNL     1      -3.782  -0.046   0.237  0.00  0.00    +0.000 A 
ATOM     13  C   UNL     1      -4.336   0.821  -0.679  0.00  0.00    +0.000 A 
ATOM     14  C   UNL     1      -5.580   1.382  -0.440  0.00  0.00    +0.000 A 
ATOM     15  C   UNL     1      -6.277   1.058   0.716  0.00  0.00    +0.000 A 
ATOM     16  C   UNL     1      -5.732   0.168   1.639  0.00  0.00    +0.000 A 
ENDBRANCH   9  11
ENDBRANCH   4   9
BRANCH   5  17
ATOM     17  O   UNL     1      -1.247  -2.188   2.568  0.00  0.00    +0.000 OA
ATOM     18  H   UNL     1      -1.385  -1.648   3.385  0.00  0.00    +0.000 HD
ENDBRANCH   5  17
TORSDOF 4
ENDMDL
MODEL 5
REMARK VINA RESULT:      -4.2      2.536      5.115
REMARK  Name = ox1_orig_f12_ligand
REMARK  5 active torsions:
REMARK  status: ('A' for Active; 'I' for Inactive)
REMARK    1  A    between atoms: C_1  and  O_2
REMARK    2  A    between atoms: O_2  and  C_3
REMARK    3  A    between atoms: C_6  and  C_7
REMARK    4  A    between atoms: C_7  and  C_9
REMARK    5  A    between atoms: C_15  and  O_16
REMARK                            x       y       z     vdW  Elec       q    Type
REMARK                         _______ _______ _______ _____ _____    ______ ____
ROOT
ATOM      1  C   UNL     1      -4.392  -0.238  -0.383  0.00  0.00    +0.000 A 
ATOM      2  C   UNL     1      -4.714  -0.097   0.963  0.00  0.00    +0.000 A 
ATOM      3  C   UNL     1      -4.077  -0.885   1.912  0.00  0.00    +0.000 A 
ATOM      4  C   UNL     1      -3.124  -1.825   1.530  0.00  0.00    +0.000 A 
ATOM      5  C   UNL     1      -2.801  -1.956   0.183  0.00  0.00    +0.000 A 
ATOM      6  C   UNL     1      -3.432  -1.161  -0.761  0.00  0.00    +0.000 A 
ENDROOT
BRANCH   1   8
ATOM      7  C   UNL     1      -4.560   1.850  -1.565  0.00  0.00    +0.000 C 
ATOM      8  O   UNL     1      -5.046   0.556  -1.286  0.00  0.00    +0.000 OA
ENDBRANCH   1   8
BRANCH   4   9
ATOM      9  C   UNL     1      -2.418  -2.687   2.542  0.00  0.00    +0.000 C 
ATOM     10  O   UNL     1      -1.260  -2.429   2.799  0.00  0.00    +0.000 OA
BRANCH   9  11
ATOM     11  C   UNL     1      -3.078  -3.802   3.258  0.00  0.00    +0.000 A 
ATOM     12  C   UNL     1      -4.030  -3.575   4.244  0.00  0.00    +0.000 A 
ATOM     13  C   UNL     1      -4.624  -4.628   4.903  0.00  0.00    +0.000 A 
ATOM     14  C   UNL     1      -4.278  -5.931   4.584  0.00  0.00    +0.000 A 
ATOM     15  C   UNL     1      -3.343  -6.176   3.587  0.00  0.00    +0.000 A 
ATOM     16  C   UNL     1      -2.750  -5.118   2.903  0.00  0.00    +0.000 A 
ENDBRANCH   9  11
ENDBRANCH   4   9
BRANCH   5  17
ATOM     17  O   UNL     1      -1.863  -2.864  -0.183  0.00  0.00    +0.000 OA
ATOM     18  H   UNL     1      -0.933  -2.572  -0.357  0.00  0.00    +0.000 HD
ENDBRANCH   5  17
TORSDOF 4
ENDMDL
MODEL 6
REMARK VINA RESULT:      -4.1      2.825      6.838
REMARK  Name = ox1_orig_f12_ligand
REMARK  5 active torsions:
REMARK  status: ('A' for Active; 'I' for Inactive)
REMARK    1  A    between atoms: C_1  and  O_2
REMARK    2  A    between atoms: O_2  and  C_3
REMARK    3  A    between atoms: C_6  and  C_7
REMARK    4  A    between atoms: C_7  and  C_9
REMARK    5  A    between atoms: C_15  and  O_16
REMARK                            x       y       z     vdW  Elec       q    Type
REMARK                         _______ _______ _______ _____ _____    ______ ____
ROOT
ATOM      1  C   UNL     1      -2.824  -1.285  -3.546  0.00  0.00    +0.000 A 
ATOM      2  C   UNL     1      -3.321  -2.437  -2.946  0.00  0.00    +0.000 A 
ATOM      3  C   UNL     1      -3.416  -2.511  -1.563  0.00  0.00    +0.000 A 
ATOM      4  C   UNL     1      -3.008  -1.444  -0.767  0.00  0.00    +0.000 A 
ATOM      5  C   UNL     1      -2.519  -0.292  -1.373  0.00  0.00    +0.000 A 
ATOM      6  C   UNL     1      -2.434  -0.219  -2.754  0.00  0.00    +0.000 A 
ENDROOT
BRANCH   1   8
ATOM      7  C   UNL     1      -3.068  -2.405  -5.660  0.00  0.00    +0.000 C 
ATOM      8  O   UNL     1      -2.744  -1.255  -4.912  0.00  0.00    +0.000 OA
ENDBRANCH   1   8
BRANCH   4   9
ATOM      9  C   UNL     1      -3.106  -1.500   0.734  0.00  0.00    +0.000 C 
ATOM     10  O   UNL     1      -2.178  -1.988   1.347  0.00  0.00    +0.000 OA
BRANCH   9  11
ATOM     11  C   UNL     1      -4.256  -0.958   1.492  0.00  0.00    +0.000 A 
ATOM     12  C   UNL     1      -5.263  -0.231   0.871  0.00  0.00    +0.000 A 
ATOM     13  C   UNL     1      -6.319   0.271   1.598  0.00  0.00    +0.000 A 
ATOM     14  C   UNL     1      -6.389   0.051   2.964  0.00  0.00    +0.000 A 
ATOM     15  C   UNL     1      -5.401  -0.691   3.598  0.00  0.00    +0.000 A 
ATOM     16  C   UNL     1      -4.339  -1.218   2.868  0.00  0.00    +0.000 A 
ENDBRANCH   9  11
ENDBRANCH   4   9
BRANCH   5  17
ATOM     17  O   UNL     1      -2.136   0.749  -0.593  0.00  0.00    +0.000 OA
ATOM     18  H   UNL     1      -1.183   0.860  -0.348  0.00  0.00    +0.000 HD
ENDBRANCH   5  17
TORSDOF 4
ENDMDL
MODEL 7
REMARK VINA RESULT:      -4.1      3.507      7.137
REMARK  Name = ox1_orig_f12_ligand
REMARK  5 active torsions:
REMARK  status: ('A' for Active; 'I' for Inactive)
REMARK    1  A    between atoms: C_1  and  O_2
REMARK    2  A    between atoms: O_2  and  C_3
REMARK    3  A    between atoms: C_6  and  C_7
REMARK    4  A    between atoms: C_7  and  C_9
REMARK    5  A    between atoms: C_15  and  O_16
REMARK                            x       y       z     vdW  Elec       q    Type
REMARK                         _______ _______ _______ _____ _____    ______ ____
ROOT
ATOM      1  C   UNL     1      -3.783  -2.188  -4.470  0.00  0.00    +0.000 A 
ATOM      2  C   UNL     1      -4.660  -2.511  -3.441  0.00  0.00    +0.000 A 
ATOM      3  C   UNL     1      -4.542  -1.883  -2.209  0.00  0.00    +0.000 A 
ATOM      4  C   UNL     1      -3.544  -0.938  -1.987  0.00  0.00    +0.000 A 
ATOM      5  C   UNL     1      -2.673  -0.615  -3.022  0.00  0.00    +0.000 A 
ATOM      6  C   UNL     1      -2.800  -1.236  -4.254  0.00  0.00    +0.000 A 
ENDROOT
BRANCH   1   8
ATOM      7  C   UNL     1      -2.912  -2.756  -6.639  0.00  0.00    +0.000 C 
ATOM      8  O   UNL     1      -3.932  -2.832  -5.669  0.00  0.00    +0.000 OA
ENDBRANCH   1   8
BRANCH   4   9
ATOM      9  C   UNL     1      -3.399  -0.242  -0.660  0.00  0.00    +0.000 C 
ATOM     10  O   UNL     1      -3.307   0.967  -0.660  0.00  0.00    +0.000 OA
BRANCH   9  11
ATOM     11  C   UNL     1      -3.401  -0.959   0.636  0.00  0.00    +0.000 A 
ATOM     12  C   UNL     1      -2.453  -1.929   0.936  0.00  0.00    +0.000 A 
ATOM     13  C   UNL     1      -2.481  -2.588   2.145  0.00  0.00    +0.000 A 
ATOM     14  C   UNL     1      -3.458  -2.285   3.079  0.00  0.00    +0.000 A 
ATOM     15  C   UNL     1      -4.401  -1.304   2.803  0.00  0.00    +0.000 A 
ATOM     16  C   UNL     1      -4.370  -0.620   1.590  0.00  0.00    +0.000 A 
ENDBRANCH   9  11
ENDBRANCH   4   9
BRANCH   5  17
ATOM     17  O   UNL     1      -1.711   0.316  -2.805  0.00  0.00    +0.000 OA
ATOM     18  H   UNL     1      -1.137   0.256  -2.001  0.00  0.00    +0.000 HD
ENDBRANCH   5  17
TORSDOF 4
ENDMDL
MODEL 8
REMARK VINA RESULT:      -4.1      2.066      3.060
REMARK  Name = ox1_orig_f12_ligand
REMARK  5 active torsions:
REMARK  status: ('A' for Active; 'I' for Inactive)
REMARK    1  A    between atoms: C_1  and  O_2
REMARK    2  A    between atoms: O_2  and  C_3
REMARK    3  A    between atoms: C_6  and  C_7
REMARK    4  A    between atoms: C_7  and  C_9
REMARK    5  A    between atoms: C_15  and  O_16
REMARK                            x       y       z     vdW  Elec       q    Type
REMARK                         _______ _______ _______ _____ _____    ______ ____
ROOT
ATOM      1  C   UNL     1      -4.985  -1.285   2.953  0.00  0.00    +0.000 A 
ATOM      2  C   UNL     1      -5.641  -0.482   2.026  0.00  0.00    +0.000 A 
ATOM      3  C   UNL     1      -5.013  -0.146   0.835  0.00  0.00    +0.000 A 
ATOM      4  C   UNL     1      -3.724  -0.595   0.561  0.00  0.00    +0.000 A 
ATOM      5  C   UNL     1      -3.076  -1.404   1.489  0.00  0.00    +0.000 A 
ATOM      6  C   UNL     1      -3.710  -1.746   2.673  0.00  0.00    +0.000 A 
ENDROOT
BRANCH   1   8
ATOM      7  C   UNL     1      -5.605  -2.909   4.615  0.00  0.00    +0.000 C 
ATOM      8  O   UNL     1      -5.639  -1.591   4.116  0.00  0.00    +0.000 OA
ENDBRANCH   1   8
BRANCH   4   9
ATOM      9  C   UNL     1      -3.025  -0.246  -0.725  0.00  0.00    +0.000 C 
ATOM     10  O   UNL     1      -2.315   0.738  -0.737  0.00  0.00    +0.000 OA
BRANCH   9  11
ATOM     11  C   UNL     1      -3.135  -1.063  -1.955  0.00  0.00    +0.000 A 
ATOM     12  C   UNL     1      -3.640  -2.357  -1.930  0.00  0.00    +0.000 A 
ATOM     13  C   UNL     1      -3.725  -3.101  -3.085  0.00  0.00    +0.000 A 
ATOM     14  C   UNL     1      -3.307  -2.561  -4.291  0.00  0.00    +0.000 A 
ATOM     15  C   UNL     1      -2.817  -1.263  -4.337  0.00  0.00    +0.000 A 
ATOM     16  C   UNL     1      -2.745  -0.497  -3.176  0.00  0.00    +0.000 A 
ENDBRANCH   9  11
ENDBRANCH   4   9
BRANCH   5  17
ATOM     17  O   UNL     1      -1.826  -1.851   1.211  0.00  0.00    +0.000 OA
ATOM     18  H   UNL     1      -1.109  -1.769   1.888  0.00  0.00    +0.000 HD
ENDBRANCH   5  17
TORSDOF 4
ENDMDL
MODEL 9
REMARK VINA RESULT:      -4.0      2.583      5.761
REMARK  Name = ox1_orig_f12_ligand
REMARK  5 active torsions:
REMARK  status: ('A' for Active; 'I' for Inactive)
REMARK    1  A    between atoms: C_1  and  O_2
REMARK    2  A    between atoms: O_2  and  C_3
REMARK    3  A    between atoms: C_6  and  C_7
REMARK    4  A    between atoms: C_7  and  C_9
REMARK    5  A    between atoms: C_15  and  O_16
REMARK                            x       y       z     vdW  Elec       q    Type
REMARK                         _______ _______ _______ _____ _____    ______ ____
ROOT
ATOM      1  C   UNL     1      -3.368  -1.796   0.031  0.00  0.00    +0.000 A 
ATOM      2  C   UNL     1      -4.331  -2.800   0.043  0.00  0.00    +0.000 A 
ATOM      3  C   UNL     1      -4.248  -3.826   0.974  0.00  0.00    +0.000 A 
ATOM      4  C   UNL     1      -3.202  -3.868   1.892  0.00  0.00    +0.000 A 
ATOM      5  C   UNL     1      -2.246  -2.857   1.879  0.00  0.00    +0.000 A 
ATOM      6  C   UNL     1      -2.337  -1.829   0.954  0.00  0.00    +0.000 A 
ENDROOT
BRANCH   1   8
ATOM      7  C   UNL     1      -2.519   0.220  -0.968  0.00  0.00    +0.000 C 
ATOM      8  O   UNL     1      -3.485  -0.805  -0.906  0.00  0.00    +0.000 OA
ENDBRANCH   1   8
BRANCH   4   9
ATOM      9  C   UNL     1      -3.093  -4.968   2.913  0.00  0.00    +0.000 C 
ATOM     10  O   UNL     1      -2.241  -5.816   2.747  0.00  0.00    +0.000 OA
BRANCH   9  11
ATOM     11  C   UNL     1      -3.948  -5.041   4.120  0.00  0.00    +0.000 A 
ATOM     12  C   UNL     1      -4.339  -3.900   4.808  0.00  0.00    +0.000 A 
ATOM     13  C   UNL     1      -5.128  -3.993   5.933  0.00  0.00    +0.000 A 
ATOM     14  C   UNL     1      -5.544  -5.234   6.389  0.00  0.00    +0.000 A 
ATOM     15  C   UNL     1      -5.178  -6.384   5.701  0.00  0.00    +0.000 A 
ATOM     16  C   UNL     1      -4.396  -6.297   4.552  0.00  0.00    +0.000 A 
ENDBRANCH   9  11
ENDBRANCH   4   9
BRANCH   5  17
ATOM     17  O   UNL     1      -1.236  -2.896   2.784  0.00  0.00    +0.000 OA
ATOM     18  H   UNL     1      -0.856  -3.765   3.064  0.00  0.00    +0.000 HD
ENDBRANCH   5  17
TORSDOF 4
ENDMDL
