REMARK  Name = ox1_orig_f12_ligand
REMARK  5 active torsions:
REMARK  status: ('A' for Active; 'I' for Inactive)
REMARK    1  A    between atoms: C_1  and  O_2
REMARK    2  A    between atoms: O_2  and  C_3
REMARK    3  A    between atoms: C_6  and  C_7
REMARK    4  A    between atoms: C_7  and  C_9
REMARK    5  A    between atoms: C_15  and  O_16
REMARK                            x       y       z     vdW  Elec       q    Type
REMARK                         _______ _______ _______ _____ _____    ______ ____
ROOT
ATOM      1  C   UNL     1      -2.777   1.057   2.187  0.00  0.00    +0.000 A 
ATOM      2  C   UNL     1      -3.994   0.626   1.670  0.00  0.00    +0.000 A 
ATOM      3  C   UNL     1      -4.196  -0.721   1.407  0.00  0.00    +0.000 A 
ATOM      4  C   UNL     1      -3.186  -1.649   1.646  0.00  0.00    +0.000 A 
ATOM      5  C   UNL     1      -1.974  -1.213   2.169  0.00  0.00    +0.000 A 
ATOM      6  C   UNL     1      -1.779   0.132   2.439  0.00  0.00    +0.000 A 
ENDROOT
BRANCH   1   8
ATOM      7  C   UNL     1      -1.428   2.866   3.019  0.00  0.00    +0.000 C 
ATOM      8  O   UNL     1      -2.618   2.396   2.429  0.00  0.00    +0.000 OA
ENDBRANCH   1   8
BRANCH   4   9
ATOM      9  C   UNL     1      -3.383  -3.116   1.372  0.00  0.00    +0.000 C 
ATOM     10  O   UNL     1      -2.510  -3.882   1.721  0.00  0.00    +0.000 OA
BRANCH   9  11
ATOM     11  C   UNL     1      -4.603  -3.665   0.735  0.00  0.00    +0.000 A 
ATOM     12  C   UNL     1      -5.184  -3.059  -0.372  0.00  0.00    +0.000 A 
ATOM     13  C   UNL     1      -6.322  -3.584  -0.942  0.00  0.00    +0.000 A 
ATOM     14  C   UNL     1      -6.900  -4.728  -0.415  0.00  0.00    +0.000 A 
ATOM     15  C   UNL     1      -6.321  -5.356   0.680  0.00  0.00    +0.000 A 
ATOM     16  C   UNL     1      -5.159  -4.844   1.251  0.00  0.00    +0.000 A 
ENDBRANCH   9  11
ENDBRANCH   4   9
BRANCH   5  17
ATOM     17  O   UNL     1      -0.998  -2.123   2.413  0.00  0.00    +0.000 OA
ATOM     18  H   UNL     1      -0.129  -1.829   2.785  0.00  0.00    +0.000 HD
ENDBRANCH   5  17
TORSDOF 4
