REMARK  Name = /Users/cafierom/python_mac/peptidebuilder/runs/oxybenzone/dock/ox1_orig_f12_rf3apo/ox1_orig_f12_rf3apo_protein.pdb
REMARK                            x       y       z     vdW  Elec       q    Type
REMARK                         _______ _______ _______ _____ _____    ______ ____
ATOM      1  N   PHE A   1       0.032 -11.434   4.536  0.00  0.00    +0.000 NA
ATOM      2  CA  PHE A   1       0.541 -10.245   3.847  0.00  0.00    +0.000 C 
ATOM      3  C   PHE A   1      -0.015 -10.170   2.454  0.00  0.00    +0.000 C 
ATOM      4  O   PHE A   1      -0.087 -11.170   1.730  0.00  0.00    +0.000 OA
ATOM      5  CB  PHE A   1       2.060 -10.254   3.811  0.00  0.00    +0.000 C 
ATOM      6  CG  PHE A   1       2.693 -10.108   5.165  0.00  0.00    +0.000 A 
ATOM      7  CD1 PHE A   1       2.843  -8.818   5.715  0.00  0.00    +0.000 A 
ATOM      8  CD2 PHE A   1       3.141 -11.219   5.861  0.00  0.00    +0.000 A 
ATOM      9  CE1 PHE A   1       3.434  -8.707   6.980  0.00  0.00    +0.000 A 
ATOM     10  CE2 PHE A   1       3.726 -11.059   7.124  0.00  0.00    +0.000 A 
ATOM     11  CZ  PHE A   1       3.866  -9.817   7.678  0.00  0.00    +0.000 A 
ATOM     12  N   GLY A   2      -0.646  -9.087   2.149  0.00  0.00    +0.000 N 
ATOM     13  CA  GLY A   2      -1.174  -8.864   0.834  0.00  0.00    +0.000 C 
ATOM     14  C   GLY A   2      -0.514  -7.720   0.148  0.00  0.00    +0.000 C 
ATOM     15  O   GLY A   2       0.294  -6.989   0.735  0.00  0.00    +0.000 OA
ATOM     16  N   ARG A   3      -0.666  -7.680  -1.136  0.00  0.00    +0.000 N 
ATOM     17  CA  ARG A   3      -0.179  -6.607  -1.981  0.00  0.00    +0.000 C 
ATOM     18  C   ARG A   3      -1.310  -5.690  -2.321  0.00  0.00    +0.000 C 
ATOM     19  O   ARG A   3      -2.413  -6.104  -2.728  0.00  0.00    +0.000 OA
ATOM     20  CB  ARG A   3       0.455  -7.170  -3.246  0.00  0.00    +0.000 C 
ATOM     21  CG  ARG A   3       1.179  -6.132  -4.065  0.00  0.00    +0.000 C 
ATOM     22  CD  ARG A   3       1.884  -6.755  -5.260  0.00  0.00    +0.000 C 
ATOM     23  NE  ARG A   3       2.581  -5.777  -6.076  0.00  0.00    +0.000 NA
ATOM     24  CZ  ARG A   3       3.274  -6.029  -7.188  0.00  0.00    +0.000 C 
ATOM     25  NH1 ARG A   3       3.380  -7.255  -7.629  0.00  0.00    +0.000 N 
ATOM     26  NH2 ARG A   3       3.845  -5.046  -7.830  0.00  0.00    +0.000 NA
ATOM     27  N   GLY A   4      -1.102  -4.413  -2.006  0.00  0.00    +0.000 N 
ATOM     28  CA  GLY A   4      -2.135  -3.452  -2.307  0.00  0.00    +0.000 C 
ATOM     29  C   GLY A   4      -1.634  -2.288  -3.110  0.00  0.00    +0.000 C 
ATOM     30  O   GLY A   4      -0.433  -2.043  -3.185  0.00  0.00    +0.000 OA
ATOM     31  N   LYS A   5      -2.563  -1.694  -3.818  0.00  0.00    +0.000 N 
ATOM     32  CA  LYS A   5      -2.277  -0.487  -4.581  0.00  0.00    +0.000 C 
ATOM     33  C   LYS A   5      -3.057   0.676  -4.006  0.00  0.00    +0.000 C 
ATOM     34  O   LYS A   5      -4.265   0.624  -3.795  0.00  0.00    +0.000 OA
ATOM     35  CB  LYS A   5      -2.646  -0.690  -6.042  0.00  0.00    +0.000 C 
ATOM     36  CG  LYS A   5      -2.206   0.442  -6.938  0.00  0.00    +0.000 C 
ATOM     37  CD  LYS A   5      -2.484   0.121  -8.405  0.00  0.00    +0.000 C 
ATOM     38  CE  LYS A   5      -2.042   1.248  -9.329  0.00  0.00    +0.000 C 
ATOM     39  NZ  LYS A   5      -2.292   0.919 -10.763  0.00  0.00    +0.000 N 
ATOM     40  N   GLY A   6      -2.312   1.667  -3.614  0.00  0.00    +0.000 N 
ATOM     41  CA  GLY A   6      -2.936   2.872  -3.115  0.00  0.00    +0.000 C 
ATOM     42  C   GLY A   6      -3.301   3.839  -4.194  0.00  0.00    +0.000 C 
ATOM     43  O   GLY A   6      -3.271   3.526  -5.388  0.00  0.00    +0.000 OA
ATOM     44  N   GLY A   7      -3.822   4.966  -3.866  0.00  0.00    +0.000 N 
ATOM     45  CA  GLY A   7      -4.245   6.003  -4.768  0.00  0.00    +0.000 C 
ATOM     46  C   GLY A   7      -3.116   6.732  -5.436  0.00  0.00    +0.000 C 
ATOM     47  O   GLY A   7      -3.333   7.521  -6.359  0.00  0.00    +0.000 OA
ATOM     48  N   GLY A   8      -1.882   6.393  -5.111  0.00  0.00    +0.000 N 
ATOM     49  CA  GLY A   8      -0.720   7.010  -5.710  0.00  0.00    +0.000 C 
ATOM     50  C   GLY A   8       0.000   6.084  -6.670  0.00  0.00    +0.000 C 
ATOM     51  O   GLY A   8      -0.594   5.216  -7.287  0.00  0.00    +0.000 OA
ATOM     52  N   ASP A   9       1.261   6.323  -6.893  0.00  0.00    +0.000 N 
ATOM     53  CA  ASP A   9       2.083   5.621  -7.867  0.00  0.00    +0.000 C 
ATOM     54  C   ASP A   9       2.775   4.435  -7.238  0.00  0.00    +0.000 C 
ATOM     55  O   ASP A   9       3.403   3.645  -7.935  0.00  0.00    +0.000 OA
ATOM     56  CB  ASP A   9       3.106   6.553  -8.506  0.00  0.00    +0.000 C 
ATOM     57  CG  ASP A   9       2.472   7.640  -9.328  0.00  0.00    +0.000 C 
ATOM     58  OD1 ASP A   9       1.404   7.398  -9.914  0.00  0.00    +0.000 OA
ATOM     59  OD2 ASP A   9       3.081   8.725  -9.396  0.00  0.00    +0.000 OA
ATOM     60  N   GLY A  10       2.571   4.233  -5.957  0.00  0.00    +0.000 N 
ATOM     61  CA  GLY A  10       3.331   3.184  -5.302  0.00  0.00    +0.000 C 
ATOM     62  C   GLY A  10       2.505   1.959  -5.001  0.00  0.00    +0.000 C 
ATOM     63  O   GLY A  10       1.275   2.004  -5.028  0.00  0.00    +0.000 OA
ATOM     64  N   GLU A  11       3.182   0.826  -4.853  0.00  0.00    +0.000 N 
ATOM     65  CA  GLU A  11       2.620  -0.422  -4.390  0.00  0.00    +0.000 C 
ATOM     66  C   GLU A  11       3.147  -0.778  -3.021  0.00  0.00    +0.000 C 
ATOM     67  O   GLU A  11       4.298  -0.476  -2.680  0.00  0.00    +0.000 OA
ATOM     68  CB  GLU A  11       2.922  -1.545  -5.369  0.00  0.00    +0.000 C 
ATOM     69  CG  GLU A  11       2.264  -1.365  -6.731  0.00  0.00    +0.000 C 
ATOM     70  CD  GLU A  11       2.535  -2.514  -7.686  0.00  0.00    +0.000 C 
ATOM     71  OE1 GLU A  11       1.779  -2.681  -8.655  0.00  0.00    +0.000 OA
ATOM     72  OE2 GLU A  11       3.527  -3.261  -7.427  0.00  0.00    +0.000 OA
ATOM     73  N   GLY A  12       2.236  -1.301  -2.200  0.00  0.00    +0.000 N 
ATOM     74  CA  GLY A  12       2.663  -1.647  -0.879  0.00  0.00    +0.000 C 
ATOM     75  C   GLY A  12       2.372  -3.078  -0.528  0.00  0.00    +0.000 C 
ATOM     76  O   GLY A  12       1.668  -3.779  -1.248  0.00  0.00    +0.000 OA
ATOM     77  N   ILE A  13       3.103  -3.582   0.470  0.00  0.00    +0.000 N 
ATOM     78  CA  ILE A  13       2.882  -4.900   1.014  0.00  0.00    +0.000 C 
ATOM     79  C   ILE A  13       2.197  -4.798   2.361  0.00  0.00    +0.000 C 
ATOM     80  O   ILE A  13       2.585  -3.977   3.200  0.00  0.00    +0.000 OA
ATOM     81  CB  ILE A  13       4.207  -5.682   1.170  0.00  0.00    +0.000 C 
ATOM     82  CG1 ILE A  13       4.896  -5.812  -0.178  0.00  0.00    +0.000 C 
ATOM     83  CG2 ILE A  13       3.959  -7.031   1.792  0.00  0.00    +0.000 C 
ATOM     84  CD1 ILE A  13       6.326  -6.392  -0.104  0.00  0.00    +0.000 C 
ATOM     85  N   GLY A  14       1.091  -5.524   2.506  0.00  0.00    +0.000 N 
ATOM     86  CA  GLY A  14       0.365  -5.510   3.750  0.00  0.00    +0.000 C 
ATOM     87  C   GLY A  14      -1.011  -4.930   3.619  0.00  0.00    +0.000 C 
ATOM     88  O   GLY A  14      -1.556  -4.827   2.528  0.00  0.00    +0.000 OA
ATOM     89  N   GLY A  15      -1.673  -4.718   4.667  0.00  0.00    +0.000 N 
ATOM     90  CA  GLY A  15      -3.058  -4.278   4.813  0.00  0.00    +0.000 C 
ATOM     91  C   GLY A  15      -3.468  -3.159   3.895  0.00  0.00    +0.000 C 
ATOM     92  O   GLY A  15      -4.108  -2.210   4.325  0.00  0.00    +0.000 OA
ATOM     93  N   GLY A  16      -3.051  -3.234   2.616  0.00  0.00    +0.000 N 
ATOM     94  CA  GLY A  16      -3.510  -2.264   1.662  0.00  0.00    +0.000 C 
ATOM     95  C   GLY A  16      -2.726  -0.987   1.650  0.00  0.00    +0.000 C 
ATOM     96  O   GLY A  16      -3.200   0.043   1.192  0.00  0.00    +0.000 OA
ATOM     97  N   LEU A  17      -1.533  -1.067   2.250  0.00  0.00    +0.000 N 
ATOM     98  CA  LEU A  17      -0.688   0.108   2.215  0.00  0.00    +0.000 C 
ATOM     99  C   LEU A  17      -0.145   0.349   0.830  0.00  0.00    +0.000 C 
ATOM    100  O   LEU A  17       0.371  -0.557   0.177  0.00  0.00    +0.000 OA
ATOM    101  CB  LEU A  17       0.475  -0.017   3.205  0.00  0.00    +0.000 C 
ATOM    102  CG  LEU A  17       0.081  -0.021   4.674  0.00  0.00    +0.000 C 
ATOM    103  CD1 LEU A  17       1.286  -0.372   5.532  0.00  0.00    +0.000 C 
ATOM    104  CD2 LEU A  17      -0.500   1.319   5.094  0.00  0.00    +0.000 C 
ATOM    105  N   GLY A  18      -0.441   1.467   0.288  0.00  0.00    +0.000 N 
ATOM    106  CA  GLY A  18       0.052   1.835  -1.010  0.00  0.00    +0.000 C 
ATOM    107  C   GLY A  18       0.181   3.313  -1.174  0.00  0.00    +0.000 C 
ATOM    108  O   GLY A  18       0.059   4.087  -0.222  0.00  0.00    +0.000 OA
ATOM    109  N   GLY A  19       0.604   3.688  -2.333  0.00  0.00    +0.000 N 
ATOM    110  CA  GLY A  19       0.797   5.096  -2.624  0.00  0.00    +0.000 C 
ATOM    111  C   GLY A  19       2.136   5.616  -2.205  0.00  0.00    +0.000 C 
ATOM    112  O   GLY A  19       3.043   4.872  -1.888  0.00  0.00    +0.000 OA
ATOM    113  N   SER A  20       2.300   6.884  -2.302  0.00  0.00    +0.000 N 
ATOM    114  CA  SER A  20       3.582   7.539  -2.066  0.00  0.00    +0.000 C 
ATOM    115  C   SER A  20       3.989   7.448  -0.607  0.00  0.00    +0.000 C 
ATOM    116  O   SER A  20       5.155   7.534  -0.264  0.00  0.00    +0.000 OA
ATOM    117  CB  SER A  20       3.520   9.003  -2.480  0.00  0.00    +0.000 C 
ATOM    118  OG  SER A  20       2.483   9.674  -1.779  0.00  0.00    +0.000 OA
ATOM    119  N   GLY A  21       3.015   7.117   0.247  0.00  0.00    +0.000 N 
ATOM    120  CA  GLY A  21       3.303   7.064   1.653  0.00  0.00    +0.000 C 
ATOM    121  C   GLY A  21       3.358   5.653   2.183  0.00  0.00    +0.000 C 
ATOM    122  O   GLY A  21       3.543   5.413   3.364  0.00  0.00    +0.000 OA
ATOM    123  N   GLY A  22       3.230   4.665   1.293  0.00  0.00    +0.000 N 
ATOM    124  CA  GLY A  22       3.188   3.305   1.713  0.00  0.00    +0.000 C 
ATOM    125  C   GLY A  22       4.508   2.607   1.555  0.00  0.00    +0.000 C 
ATOM    126  O   GLY A  22       5.492   3.210   1.178  0.00  0.00    +0.000 OA
ATOM    127  N   TRP A  23       4.530   1.369   2.019  0.00  0.00    +0.000 N 
ATOM    128  CA  TRP A  23       5.690   0.516   1.838  0.00  0.00    +0.000 C 
ATOM    129  C   TRP A  23       5.668  -0.092   0.457  0.00  0.00    +0.000 C 
ATOM    130  O   TRP A  23       4.637  -0.586  -0.031  0.00  0.00    +0.000 OA
ATOM    131  CB  TRP A  23       5.729  -0.595   2.899  0.00  0.00    +0.000 C 
ATOM    132  CG  TRP A  23       5.930  -0.078   4.287  0.00  0.00    +0.000 C 
ATOM    133  CD1 TRP A  23       6.250   1.169   4.678  0.00  0.00    +0.000 C 
ATOM    134  CD2 TRP A  23       5.825  -0.830   5.510  0.00  0.00    +0.000 C 
ATOM    135  NE1 TRP A  23       6.349   1.244   6.047  0.00  0.00    +0.000 NA
ATOM    136  CE2 TRP A  23       6.089   0.015   6.566  0.00  0.00    +0.000 C 
ATOM    137  CE3 TRP A  23       5.529  -2.189   5.753  0.00  0.00    +0.000 C 
ATOM    138  CZ2 TRP A  23       6.049  -0.422   7.902  0.00  0.00    +0.000 C 
ATOM    139  CZ3 TRP A  23       5.512  -2.608   7.088  0.00  0.00    +0.000 C 
ATOM    140  CH2 TRP A  23       5.765  -1.738   8.143  0.00  0.00    +0.000 C 
ATOM    141  N   GLY A  24       6.784   0.085  -0.262  0.00  0.00    +0.000 N 
ATOM    142  CA  GLY A  24       6.849  -0.462  -1.594  0.00  0.00    +0.000 C 
ATOM    143  C   GLY A  24       7.887  -1.527  -1.756  0.00  0.00    +0.000 C 
ATOM    144  O   GLY A  24       8.760  -1.712  -0.906  0.00  0.00    +0.000 OA
ATOM    145  N   ASP A  25       7.709  -2.369  -2.761  0.00  0.00    +0.000 N 
ATOM    146  CA  ASP A  25       8.709  -3.340  -3.141  0.00  0.00    +0.000 C 
ATOM    147  C   ASP A  25       9.938  -2.649  -3.706  0.00  0.00    +0.000 C 
ATOM    148  O   ASP A  25       9.846  -1.596  -4.357  0.00  0.00    +0.000 OA
ATOM    149  CB  ASP A  25       8.153  -4.332  -4.177  0.00  0.00    +0.000 C 
ATOM    150  CG  ASP A  25       7.113  -5.251  -3.610  0.00  0.00    +0.000 C 
ATOM    151  OD1 ASP A  25       7.152  -5.543  -2.404  0.00  0.00    +0.000 OA
ATOM    152  OD2 ASP A  25       6.265  -5.700  -4.381  0.00  0.00    +0.000 OA
ATOM    153  H   PHE A   1      -0.988 -11.409   4.549  0.00  0.00    +0.000 HD
ATOM    154  H   PHE A   1       0.384 -11.449   5.493  0.00  0.00    +0.000 HD
ATOM    155  H   GLY A   2      -0.769  -8.394   2.838  0.00  0.00    +0.000 HD
ATOM    156  H   ARG A   3      -1.143  -8.426  -1.567  0.00  0.00    +0.000 HD
ATOM    157  H   ARG A   3       3.891  -7.440  -8.450  0.00  0.00    +0.000 HD
ATOM    158  H   ARG A   3       2.948  -7.993  -7.141  0.00  0.00    +0.000 HD
ATOM    159  H   ARG A   3       4.358  -5.226  -8.651  0.00  0.00    +0.000 HD
ATOM    160  H   ARG A   3       3.763  -4.125  -7.493  0.00  0.00    +0.000 HD
ATOM    161  H   ARG A   3       3.906  -5.422  -8.738  0.00  0.00    +0.000 HD
ATOM    162  H   GLY A   4      -0.262  -4.131  -1.577  0.00  0.00    +0.000 HD
ATOM    163  H   LYS A   5      -3.472  -2.071  -3.834  0.00  0.00    +0.000 HD
ATOM    164  H   LYS A   5      -3.291   0.778 -10.910  0.00  0.00    +0.000 HD
ATOM    165  H   LYS A   5      -1.788   0.067 -11.009  0.00  0.00    +0.000 HD
ATOM    166  H   LYS A   5      -1.967   1.687 -11.350  0.00  0.00    +0.000 HD
ATOM    167  H   GLY A   6      -1.331   1.597  -3.657  0.00  0.00    +0.000 HD
ATOM    168  H   GLY A   7      -3.944   5.137  -2.904  0.00  0.00    +0.000 HD
ATOM    169  H   GLY A   8      -1.748   5.692  -4.433  0.00  0.00    +0.000 HD
ATOM    170  H   ASP A   9       1.690   7.032  -6.362  0.00  0.00    +0.000 HD
ATOM    171  H   ASP A   9       3.884   8.842  -8.928  0.00  0.00    +0.000 HD
ATOM    172  H   GLY A  10       1.922   4.777  -5.455  0.00  0.00    +0.000 HD
ATOM    173  H   GLU A  11       4.141   0.837  -5.076  0.00  0.00    +0.000 HD
ATOM    174  H   GLU A  11       4.063  -3.085  -6.679  0.00  0.00    +0.000 HD
ATOM    175  H   GLY A  12       1.306  -1.443  -2.491  0.00  0.00    +0.000 HD
ATOM    176  H   ILE A  13       3.824  -3.030   0.851  0.00  0.00    +0.000 HD
ATOM    177  H   GLY A  14       0.767  -6.075   1.757  0.00  0.00    +0.000 HD
ATOM    178  H   GLY A  15      -1.188  -4.871   5.510  0.00  0.00    +0.000 HD
ATOM    179  H   GLY A  16      -2.435  -3.950   2.337  0.00  0.00    +0.000 HD
ATOM    180  H   LEU A  17      -1.241  -1.893   2.698  0.00  0.00    +0.000 HD
ATOM    181  H   GLY A  18      -1.024   2.094   0.774  0.00  0.00    +0.000 HD
ATOM    182  H   GLY A  19       0.797   3.015  -3.025  0.00  0.00    +0.000 HD
ATOM    183  H   SER A  20       1.526   7.441  -2.547  0.00  0.00    +0.000 HD
ATOM    184  H   SER A  20       1.631   9.258  -1.985  0.00  0.00    +0.000 HD
ATOM    185  H   GLY A  21       2.111   6.912  -0.084  0.00  0.00    +0.000 HD
ATOM    186  H   GLY A  22       3.164   4.880   0.335  0.00  0.00    +0.000 HD
ATOM    187  H   TRP A  23       3.744   1.019   2.497  0.00  0.00    +0.000 HD
ATOM    188  H   GLY A  24       7.547   0.581   0.113  0.00  0.00    +0.000 HD
ATOM    189  H   ASP A  25       6.866  -2.333  -3.268  0.00  0.00    +0.000 HD
ATOM    190  H   ASP A  25       7.817  -5.176  -1.854  0.00  0.00    +0.000 HD
TER 
