MODEL 1
REMARK VINA RESULT:      -4.3      0.000      0.000
REMARK  Name = ox1_orig_f12_ligand
REMARK  5 active torsions:
REMARK  status: ('A' for Active; 'I' for Inactive)
REMARK    1  A    between atoms: C_1  and  O_2
REMARK    2  A    between atoms: O_2  and  C_3
REMARK    3  A    between atoms: C_6  and  C_7
REMARK    4  A    between atoms: C_7  and  C_9
REMARK    5  A    between atoms: C_15  and  O_16
REMARK                            x       y       z     vdW  Elec       q    Type
REMARK                         _______ _______ _______ _____ _____    ______ ____
ROOT
ATOM      1  C   UNL     1       4.879  -9.098  -2.156  0.00  0.00    +0.000 A 
ATOM      2  C   UNL     1       6.055  -9.664  -1.678  0.00  0.00    +0.000 A 
ATOM      3  C   UNL     1       6.037 -10.417  -0.513  0.00  0.00    +0.000 A 
ATOM      4  C   UNL     1       4.851 -10.604   0.192  0.00  0.00    +0.000 A 
ATOM      5  C   UNL     1       3.677 -10.041  -0.295  0.00  0.00    +0.000 A 
ATOM      6  C   UNL     1       3.697  -9.297  -1.464  0.00  0.00    +0.000 A 
ENDROOT
BRANCH   1   8
ATOM      7  C   UNL     1       4.842  -8.999  -4.559  0.00  0.00    +0.000 C 
ATOM      8  O   UNL     1       4.941  -8.359  -3.308  0.00  0.00    +0.000 OA
ENDBRANCH   1   8
BRANCH   4   9
ATOM      9  C   UNL     1       4.806 -11.420   1.456  0.00  0.00    +0.000 C 
ATOM     10  O   UNL     1       4.207 -12.474   1.432  0.00  0.00    +0.000 OA
BRANCH   9  11
ATOM     11  C   UNL     1       5.489 -11.015   2.707  0.00  0.00    +0.000 A 
ATOM     12  C   UNL     1       5.650  -9.678   3.050  0.00  0.00    +0.000 A 
ATOM     13  C   UNL     1       6.295  -9.326   4.215  0.00  0.00    +0.000 A 
ATOM     14  C   UNL     1       6.789 -10.307   5.060  0.00  0.00    +0.000 A 
ATOM     15  C   UNL     1       6.620 -11.647   4.740  0.00  0.00    +0.000 A 
ATOM     16  C   UNL     1       5.952 -12.013   3.575  0.00  0.00    +0.000 A 
ENDBRANCH   9  11
ENDBRANCH   4   9
BRANCH   5  17
ATOM     17  O   UNL     1       2.522 -10.238   0.388  0.00  0.00    +0.000 OA
ATOM     18  H   UNL     1       2.022 -11.086   0.282  0.00  0.00    +0.000 HD
ENDBRANCH   5  17
TORSDOF 4
ENDMDL
MODEL 2
REMARK VINA RESULT:      -4.2      9.133     10.424
REMARK  Name = ox1_orig_f12_ligand
REMARK  5 active torsions:
REMARK  status: ('A' for Active; 'I' for Inactive)
REMARK    1  A    between atoms: C_1  and  O_2
REMARK    2  A    between atoms: O_2  and  C_3
REMARK    3  A    between atoms: C_6  and  C_7
REMARK    4  A    between atoms: C_7  and  C_9
REMARK    5  A    between atoms: C_15  and  O_16
REMARK                            x       y       z     vdW  Elec       q    Type
REMARK                         _______ _______ _______ _____ _____    ______ ____
ROOT
ATOM      1  C   UNL     1       1.556  -3.275   8.146  0.00  0.00    +0.000 A 
ATOM      2  C   UNL     1       2.259  -4.301   7.524  0.00  0.00    +0.000 A 
ATOM      3  C   UNL     1       1.633  -5.512   7.267  0.00  0.00    +0.000 A 
ATOM      4  C   UNL     1       0.306  -5.716   7.634  0.00  0.00    +0.000 A 
ATOM      5  C   UNL     1      -0.394  -4.684   8.249  0.00  0.00    +0.000 A 
ATOM      6  C   UNL     1       0.232  -3.473   8.497  0.00  0.00    +0.000 A 
ENDROOT
BRANCH   1   8
ATOM      7  C   UNL     1       2.401  -1.655   9.710  0.00  0.00    +0.000 C 
ATOM      8  O   UNL     1       2.213  -2.097   8.385  0.00  0.00    +0.000 OA
ENDBRANCH   1   8
BRANCH   4   9
ATOM      9  C   UNL     1      -0.396  -7.019   7.361  0.00  0.00    +0.000 C 
ATOM     10  O   UNL     1      -1.274  -7.028   6.525  0.00  0.00    +0.000 OA
BRANCH   9  11
ATOM     11  C   UNL     1      -0.038  -8.289   8.035  0.00  0.00    +0.000 A 
ATOM     12  C   UNL     1      -0.283  -9.523   7.445  0.00  0.00    +0.000 A 
ATOM     13  C   UNL     1       0.052 -10.690   8.095  0.00  0.00    +0.000 A 
ATOM     14  C   UNL     1       0.641 -10.644   9.349  0.00  0.00    +0.000 A 
ATOM     15  C   UNL     1       0.910  -9.418   9.944  0.00  0.00    +0.000 A 
ATOM     16  C   UNL     1       0.592  -8.232   9.286  0.00  0.00    +0.000 A 
ENDBRANCH   9  11
ENDBRANCH   4   9
BRANCH   5  17
ATOM     17  O   UNL     1      -1.691  -4.883   8.592  0.00  0.00    +0.000 OA
ATOM     18  H   UNL     1      -2.244  -5.530   8.086  0.00  0.00    +0.000 HD
ENDBRANCH   5  17
TORSDOF 4
ENDMDL
MODEL 3
REMARK VINA RESULT:      -3.9      8.947     10.547
REMARK  Name = ox1_orig_f12_ligand
REMARK  5 active torsions:
REMARK  status: ('A' for Active; 'I' for Inactive)
REMARK    1  A    between atoms: C_1  and  O_2
REMARK    2  A    between atoms: O_2  and  C_3
REMARK    3  A    between atoms: C_6  and  C_7
REMARK    4  A    between atoms: C_7  and  C_9
REMARK    5  A    between atoms: C_15  and  O_16
REMARK                            x       y       z     vdW  Elec       q    Type
REMARK                         _______ _______ _______ _____ _____    ______ ____
ROOT
ATOM      1  C   UNL     1       0.614 -10.524   9.116  0.00  0.00    +0.000 A 
ATOM      2  C   UNL     1       0.929  -9.378   9.839  0.00  0.00    +0.000 A 
ATOM      3  C   UNL     1       0.553  -8.132   9.359  0.00  0.00    +0.000 A 
ATOM      4  C   UNL     1      -0.130  -8.014   8.152  0.00  0.00    +0.000 A 
ATOM      5  C   UNL     1      -0.448  -9.163   7.437  0.00  0.00    +0.000 A 
ATOM      6  C   UNL     1      -0.079 -10.407   7.924  0.00  0.00    +0.000 A 
ENDROOT
BRANCH   1   8
ATOM      7  C   UNL     1       2.058 -11.794  10.561  0.00  0.00    +0.000 C 
ATOM      8  O   UNL     1       1.007 -11.734   9.623  0.00  0.00    +0.000 OA
ENDBRANCH   1   8
BRANCH   4   9
ATOM      9  C   UNL     1      -0.552  -6.673   7.614  0.00  0.00    +0.000 C 
ATOM     10  O   UNL     1      -1.681  -6.562   7.184  0.00  0.00    +0.000 OA
BRANCH   9  11
ATOM     11  C   UNL     1       0.331  -5.483   7.620  0.00  0.00    +0.000 A 
ATOM     12  C   UNL     1       1.606  -5.517   7.070  0.00  0.00    +0.000 A 
ATOM     13  C   UNL     1       2.411  -4.400   7.094  0.00  0.00    +0.000 A 
ATOM     14  C   UNL     1       1.953  -3.225   7.669  0.00  0.00    +0.000 A 
ATOM     15  C   UNL     1       0.673  -3.169   8.207  0.00  0.00    +0.000 A 
ATOM     16  C   UNL     1      -0.155  -4.288   8.169  0.00  0.00    +0.000 A 
ENDBRANCH   9  11
ENDBRANCH   4   9
BRANCH   5  17
ATOM     17  O   UNL     1      -1.126  -9.043   6.268  0.00  0.00    +0.000 OA
ATOM     18  H   UNL     1      -1.786  -8.315   6.151  0.00  0.00    +0.000 HD
ENDBRANCH   5  17
TORSDOF 4
ENDMDL
MODEL 4
REMARK VINA RESULT:      -3.7      9.350     11.243
REMARK  Name = ox1_orig_f12_ligand
REMARK  5 active torsions:
REMARK  status: ('A' for Active; 'I' for Inactive)
REMARK    1  A    between atoms: C_1  and  O_2
REMARK    2  A    between atoms: O_2  and  C_3
REMARK    3  A    between atoms: C_6  and  C_7
REMARK    4  A    between atoms: C_7  and  C_9
REMARK    5  A    between atoms: C_15  and  O_16
REMARK                            x       y       z     vdW  Elec       q    Type
REMARK                         _______ _______ _______ _____ _____    ______ ____
ROOT
ATOM      1  C   UNL     1      -0.094  -1.406   8.802  0.00  0.00    +0.000 A 
ATOM      2  C   UNL     1       1.262  -1.332   9.102  0.00  0.00    +0.000 A 
ATOM      3  C   UNL     1       2.110  -2.367   8.735  0.00  0.00    +0.000 A 
ATOM      4  C   UNL     1       1.614  -3.489   8.076  0.00  0.00    +0.000 A 
ATOM      5  C   UNL     1       0.259  -3.555   7.773  0.00  0.00    +0.000 A 
ATOM      6  C   UNL     1      -0.583  -2.515   8.133  0.00  0.00    +0.000 A 
ENDROOT
BRANCH   1   8
ATOM      7  C   UNL     1      -0.572   0.951   8.797  0.00  0.00    +0.000 C 
ATOM      8  O   UNL     1      -0.896  -0.364   9.185  0.00  0.00    +0.000 OA
ENDBRANCH   1   8
BRANCH   4   9
ATOM      9  C   UNL     1       2.515  -4.623   7.665  0.00  0.00    +0.000 C 
ATOM     10  O   UNL     1       2.741  -4.769   6.482  0.00  0.00    +0.000 OA
BRANCH   9  11
ATOM     11  C   UNL     1       3.162  -5.537   8.635  0.00  0.00    +0.000 A 
ATOM     12  C   UNL     1       4.542  -5.690   8.685  0.00  0.00    +0.000 A 
ATOM     13  C   UNL     1       5.120  -6.551   9.590  0.00  0.00    +0.000 A 
ATOM     14  C   UNL     1       4.327  -7.275  10.466  0.00  0.00    +0.000 A 
ATOM     15  C   UNL     1       2.947  -7.120  10.441  0.00  0.00    +0.000 A 
ATOM     16  C   UNL     1       2.355  -6.237   9.543  0.00  0.00    +0.000 A 
ENDBRANCH   9  11
ENDBRANCH   4   9
BRANCH   5  17
ATOM     17  O   UNL     1      -0.216  -4.644   7.119  0.00  0.00    +0.000 OA
ATOM     18  H   UNL     1      -0.849  -5.256   7.572  0.00  0.00    +0.000 HD
ENDBRANCH   5  17
TORSDOF 4
ENDMDL
MODEL 5
REMARK VINA RESULT:      -3.6     16.967     18.954
REMARK  Name = ox1_orig_f12_ligand
REMARK  5 active torsions:
REMARK  status: ('A' for Active; 'I' for Inactive)
REMARK    1  A    between atoms: C_1  and  O_2
REMARK    2  A    between atoms: O_2  and  C_3
REMARK    3  A    between atoms: C_6  and  C_7
REMARK    4  A    between atoms: C_7  and  C_9
REMARK    5  A    between atoms: C_15  and  O_16
REMARK                            x       y       z     vdW  Elec       q    Type
REMARK                         _______ _______ _______ _____ _____    ______ ____
ROOT
ATOM      1  C   UNL     1      -2.218   4.804   3.822  0.00  0.00    +0.000 A 
ATOM      2  C   UNL     1      -2.565   6.106   3.477  0.00  0.00    +0.000 A 
ATOM      3  C   UNL     1      -2.999   6.388   2.190  0.00  0.00    +0.000 A 
ATOM      4  C   UNL     1      -3.080   5.381   1.233  0.00  0.00    +0.000 A 
ATOM      5  C   UNL     1      -2.738   4.081   1.585  0.00  0.00    +0.000 A 
ATOM      6  C   UNL     1      -2.315   3.800   2.875  0.00  0.00    +0.000 A 
ENDROOT
BRANCH   1   8
ATOM      7  C   UNL     1      -0.570   5.111   5.547  0.00  0.00    +0.000 C 
ATOM      8  O   UNL     1      -1.792   4.569   5.103  0.00  0.00    +0.000 OA
ENDBRANCH   1   8
BRANCH   4   9
ATOM      9  C   UNL     1      -3.551   5.663  -0.169  0.00  0.00    +0.000 C 
ATOM     10  O   UNL     1      -4.384   4.924  -0.649  0.00  0.00    +0.000 OA
BRANCH   9  11
ATOM     11  C   UNL     1      -3.073   6.815  -0.968  0.00  0.00    +0.000 A 
ATOM     12  C   UNL     1      -1.722   7.019  -1.221  0.00  0.00    +0.000 A 
ATOM     13  C   UNL     1      -1.302   8.102  -1.960  0.00  0.00    +0.000 A 
ATOM     14  C   UNL     1      -2.228   9.002  -2.463  0.00  0.00    +0.000 A 
ATOM     15  C   UNL     1      -3.583   8.803  -2.235  0.00  0.00    +0.000 A 
ATOM     16  C   UNL     1      -4.019   7.700  -1.505  0.00  0.00    +0.000 A 
ENDBRANCH   9  11
ENDBRANCH   4   9
BRANCH   5  17
ATOM     17  O   UNL     1      -2.832   3.100   0.653  0.00  0.00    +0.000 OA
ATOM     18  H   UNL     1      -3.039   3.330  -0.288  0.00  0.00    +0.000 HD
ENDBRANCH   5  17
TORSDOF 4
ENDMDL
MODEL 6
REMARK VINA RESULT:      -3.6      9.254     10.689
REMARK  Name = ox1_orig_f12_ligand
REMARK  5 active torsions:
REMARK  status: ('A' for Active; 'I' for Inactive)
REMARK    1  A    between atoms: C_1  and  O_2
REMARK    2  A    between atoms: O_2  and  C_3
REMARK    3  A    between atoms: C_6  and  C_7
REMARK    4  A    between atoms: C_7  and  C_9
REMARK    5  A    between atoms: C_15  and  O_16
REMARK                            x       y       z     vdW  Elec       q    Type
REMARK                         _______ _______ _______ _____ _____    ______ ____
ROOT
ATOM      1  C   UNL     1       0.751  -2.860   8.708  0.00  0.00    +0.000 A 
ATOM      2  C   UNL     1      -0.405  -3.447   9.210  0.00  0.00    +0.000 A 
ATOM      3  C   UNL     1      -0.753  -4.733   8.822  0.00  0.00    +0.000 A 
ATOM      4  C   UNL     1       0.041  -5.441   7.924  0.00  0.00    +0.000 A 
ATOM      5  C   UNL     1       1.199  -4.852   7.431  0.00  0.00    +0.000 A 
ATOM      6  C   UNL     1       1.548  -3.571   7.828  0.00  0.00    +0.000 A 
ENDROOT
BRANCH   1   8
ATOM      7  C   UNL     1       2.369  -1.276   9.519  0.00  0.00    +0.000 C 
ATOM      8  O   UNL     1       1.056  -1.588   9.114  0.00  0.00    +0.000 OA
ENDBRANCH   1   8
BRANCH   4   9
ATOM      9  C   UNL     1      -0.314  -6.839   7.492  0.00  0.00    +0.000 C 
ATOM     10  O   UNL     1      -0.942  -6.973   6.462  0.00  0.00    +0.000 OA
BRANCH   9  11
ATOM     11  C   UNL     1       0.098  -8.049   8.240  0.00  0.00    +0.000 A 
ATOM     12  C   UNL     1       0.744  -7.963   9.468  0.00  0.00    +0.000 A 
ATOM     13  C   UNL     1       1.124  -9.102  10.141  0.00  0.00    +0.000 A 
ATOM     14  C   UNL     1       0.864 -10.350   9.599  0.00  0.00    +0.000 A 
ATOM     15  C   UNL     1       0.204 -10.454   8.382  0.00  0.00    +0.000 A 
ATOM     16  C   UNL     1      -0.203  -9.308   7.703  0.00  0.00    +0.000 A 
ENDBRANCH   9  11
ENDBRANCH   4   9
BRANCH   5  17
ATOM     17  O   UNL     1       1.977  -5.552   6.568  0.00  0.00    +0.000 OA
ATOM     18  H   UNL     1       1.920  -5.374   5.596  0.00  0.00    +0.000 HD
ENDBRANCH   5  17
TORSDOF 4
ENDMDL
MODEL 7
REMARK VINA RESULT:      -3.6      9.078     10.195
REMARK  Name = ox1_orig_f12_ligand
REMARK  5 active torsions:
REMARK  status: ('A' for Active; 'I' for Inactive)
REMARK    1  A    between atoms: C_1  and  O_2
REMARK    2  A    between atoms: O_2  and  C_3
REMARK    3  A    between atoms: C_6  and  C_7
REMARK    4  A    between atoms: C_7  and  C_9
REMARK    5  A    between atoms: C_15  and  O_16
REMARK                            x       y       z     vdW  Elec       q    Type
REMARK                         _______ _______ _______ _____ _____    ______ ____
ROOT
ATOM      1  C   UNL     1      -0.361  -4.286   7.950  0.00  0.00    +0.000 A 
ATOM      2  C   UNL     1       0.759  -4.967   7.484  0.00  0.00    +0.000 A 
ATOM      3  C   UNL     1       0.705  -6.340   7.297  0.00  0.00    +0.000 A 
ATOM      4  C   UNL     1      -0.459  -7.049   7.580  0.00  0.00    +0.000 A 
ATOM      5  C   UNL     1      -1.577  -6.362   8.038  0.00  0.00    +0.000 A 
ATOM      6  C   UNL     1      -1.522  -4.989   8.216  0.00  0.00    +0.000 A 
ENDROOT
BRANCH   1   8
ATOM      7  C   UNL     1      -1.421  -2.129   8.054  0.00  0.00    +0.000 C 
ATOM      8  O   UNL     1      -0.264  -2.931   8.124  0.00  0.00    +0.000 OA
ENDBRANCH   1   8
BRANCH   4   9
ATOM      9  C   UNL     1      -0.542  -8.539   7.381  0.00  0.00    +0.000 C 
ATOM     10  O   UNL     1      -1.117  -8.950   6.395  0.00  0.00    +0.000 OA
BRANCH   9  11
ATOM     11  C   UNL     1       0.075  -9.517   8.307  0.00  0.00    +0.000 A 
ATOM     12  C   UNL     1       0.679  -9.117   9.493  0.00  0.00    +0.000 A 
ATOM     13  C   UNL     1       1.252 -10.044  10.335  0.00  0.00    +0.000 A 
ATOM     14  C   UNL     1       1.232 -11.390  10.005  0.00  0.00    +0.000 A 
ATOM     15  C   UNL     1       0.616 -11.807   8.832  0.00  0.00    +0.000 A 
ATOM     16  C   UNL     1       0.016 -10.880   7.985  0.00  0.00    +0.000 A 
ENDBRANCH   9  11
ENDBRANCH   4   9
BRANCH   5  17
ATOM     17  O   UNL     1      -2.713  -7.056   8.300  0.00  0.00    +0.000 OA
ATOM     18  H   UNL     1      -3.585  -6.717   7.976  0.00  0.00    +0.000 HD
ENDBRANCH   5  17
TORSDOF 4
ENDMDL
MODEL 8
REMARK VINA RESULT:      -3.5      9.049     10.492
REMARK  Name = ox1_orig_f12_ligand
REMARK  5 active torsions:
REMARK  status: ('A' for Active; 'I' for Inactive)
REMARK    1  A    between atoms: C_1  and  O_2
REMARK    2  A    between atoms: O_2  and  C_3
REMARK    3  A    between atoms: C_6  and  C_7
REMARK    4  A    between atoms: C_7  and  C_9
REMARK    5  A    between atoms: C_15  and  O_16
REMARK                            x       y       z     vdW  Elec       q    Type
REMARK                         _______ _______ _______ _____ _____    ______ ____
ROOT
ATOM      1  C   UNL     1       0.125 -10.803   8.147  0.00  0.00    +0.000 A 
ATOM      2  C   UNL     1      -0.451  -9.850   7.314  0.00  0.00    +0.000 A 
ATOM      3  C   UNL     1      -0.403  -8.508   7.660  0.00  0.00    +0.000 A 
ATOM      4  C   UNL     1       0.210  -8.102   8.843  0.00  0.00    +0.000 A 
ATOM      5  C   UNL     1       0.790  -9.059   9.669  0.00  0.00    +0.000 A 
ATOM      6  C   UNL     1       0.748 -10.398   9.315  0.00  0.00    +0.000 A 
ENDROOT
BRANCH   1   8
ATOM      7  C   UNL     1      -1.198 -12.765   7.719  0.00  0.00    +0.000 C 
ATOM      8  O   UNL     1       0.053 -12.118   7.770  0.00  0.00    +0.000 OA
ENDBRANCH   1   8
BRANCH   4   9
ATOM      9  C   UNL     1       0.278  -6.651   9.238  0.00  0.00    +0.000 C 
ATOM     10  O   UNL     1      -0.106  -6.345  10.347  0.00  0.00    +0.000 OA
BRANCH   9  11
ATOM     11  C   UNL     1       0.823  -5.595   8.354  0.00  0.00    +0.000 A 
ATOM     12  C   UNL     1       0.049  -4.518   7.940  0.00  0.00    +0.000 A 
ATOM     13  C   UNL     1       0.576  -3.553   7.111  0.00  0.00    +0.000 A 
ATOM     14  C   UNL     1       1.891  -3.647   6.683  0.00  0.00    +0.000 A 
ATOM     15  C   UNL     1       2.683  -4.707   7.103  0.00  0.00    +0.000 A 
ATOM     16  C   UNL     1       2.165  -5.677   7.956  0.00  0.00    +0.000 A 
ENDBRANCH   9  11
ENDBRANCH   4   9
BRANCH   5  17
ATOM     17  O   UNL     1       1.397  -8.657  10.813  0.00  0.00    +0.000 OA
ATOM     18  H   UNL     1       1.978  -7.855  10.810  0.00  0.00    +0.000 HD
ENDBRANCH   5  17
TORSDOF 4
ENDMDL
MODEL 9
REMARK VINA RESULT:      -3.5      9.622     11.417
REMARK  Name = ox1_orig_f12_ligand
REMARK  5 active torsions:
REMARK  status: ('A' for Active; 'I' for Inactive)
REMARK    1  A    between atoms: C_1  and  O_2
REMARK    2  A    between atoms: O_2  and  C_3
REMARK    3  A    between atoms: C_6  and  C_7
REMARK    4  A    between atoms: C_7  and  C_9
REMARK    5  A    between atoms: C_15  and  O_16
REMARK                            x       y       z     vdW  Elec       q    Type
REMARK                         _______ _______ _______ _____ _____    ______ ____
ROOT
ATOM      1  C   UNL     1       0.985  -8.225   9.720  0.00  0.00    +0.000 A 
ATOM      2  C   UNL     1       2.011  -7.381  10.129  0.00  0.00    +0.000 A 
ATOM      3  C   UNL     1       2.236  -6.188   9.458  0.00  0.00    +0.000 A 
ATOM      4  C   UNL     1       1.449  -5.830   8.367  0.00  0.00    +0.000 A 
ATOM      5  C   UNL     1       0.420  -6.675   7.966  0.00  0.00    +0.000 A 
ATOM      6  C   UNL     1       0.193  -7.861   8.645  0.00  0.00    +0.000 A 
ENDROOT
BRANCH   1   8
ATOM      7  C   UNL     1       0.747 -10.619   9.711  0.00  0.00    +0.000 C 
ATOM      8  O   UNL     1       0.799  -9.395  10.408  0.00  0.00    +0.000 OA
ENDBRANCH   1   8
BRANCH   4   9
ATOM      9  C   UNL     1       1.672  -4.539   7.625  0.00  0.00    +0.000 C 
ATOM     10  O   UNL     1       2.216  -4.592   6.543  0.00  0.00    +0.000 OA
BRANCH   9  11
ATOM     11  C   UNL     1       1.224  -3.223   8.136  0.00  0.00    +0.000 A 
ATOM     12  C   UNL     1       2.115  -2.316   8.696  0.00  0.00    +0.000 A 
ATOM     13  C   UNL     1       1.674  -1.101   9.171  0.00  0.00    +0.000 A 
ATOM     14  C   UNL     1       0.330  -0.770   9.093  0.00  0.00    +0.000 A 
ATOM     15  C   UNL     1      -0.570  -1.658   8.520  0.00  0.00    +0.000 A 
ATOM     16  C   UNL     1      -0.131  -2.880   8.018  0.00  0.00    +0.000 A 
ENDBRANCH   9  11
ENDBRANCH   4   9
BRANCH   5  17
ATOM     17  O   UNL     1      -0.353  -6.314   6.911  0.00  0.00    +0.000 OA
ATOM     18  H   UNL     1      -0.690  -7.004   6.286  0.00  0.00    +0.000 HD
ENDBRANCH   5  17
TORSDOF 4
ENDMDL
