REMARK  Name = bgox31_5_ligand
REMARK  5 active torsions:
REMARK  status: ('A' for Active; 'I' for Inactive)
REMARK    1  A    between atoms: C_1  and  O_2
REMARK    2  A    between atoms: O_2  and  C_3
REMARK    3  A    between atoms: C_6  and  C_7
REMARK    4  A    between atoms: C_7  and  C_9
REMARK    5  A    between atoms: C_15  and  O_16
REMARK                            x       y       z     vdW  Elec       q    Type
REMARK                         _______ _______ _______ _____ _____    ______ ____
ROOT
ATOM      1  C   UNL     1      -3.882   9.902   5.414  0.00  0.00    +0.000 A 
ATOM      2  C   UNL     1      -4.862   9.927   4.471  0.00  0.00    +0.000 A 
ATOM      3  C   UNL     1      -4.816   9.007   3.403  0.00  0.00    +0.000 A 
ATOM      4  C   UNL     1      -3.804   8.080   3.258  0.00  0.00    +0.000 A 
ATOM      5  C   UNL     1      -2.794   8.064   4.217  0.00  0.00    +0.000 A 
ATOM      6  C   UNL     1      -2.827   8.985   5.300  0.00  0.00    +0.000 A 
ENDROOT
BRANCH   1   8
ATOM      7  C   UNL     1      -2.979  11.261   7.330  0.00  0.00    +0.000 C 
ATOM      8  O   UNL     1      -4.066  10.907   6.429  0.00  0.00    +0.000 OA
ENDBRANCH   1   8
BRANCH   4   9
ATOM      9  C   UNL     1      -3.809   7.183   2.128  0.00  0.00    +0.000 C 
ATOM     10  O   UNL     1      -2.745   6.652   1.785  0.00  0.00    +0.000 OA
BRANCH   9  11
ATOM     11  C   UNL     1      -5.056   6.987   1.323  0.00  0.00    +0.000 A 
ATOM     12  C   UNL     1      -5.148   7.201  -0.042  0.00  0.00    +0.000 A 
ATOM     13  C   UNL     1      -6.369   7.000  -0.744  0.00  0.00    +0.000 A 
ATOM     14  C   UNL     1      -7.500   6.574  -0.116  0.00  0.00    +0.000 A 
ATOM     15  C   UNL     1      -7.444   6.327   1.235  0.00  0.00    +0.000 A 
ATOM     16  C   UNL     1      -6.236   6.564   1.932  0.00  0.00    +0.000 A 
ENDBRANCH   9  11
ENDBRANCH   4   9
BRANCH   5  17
ATOM     17  O   UNL     1      -1.790   7.160   4.114  0.00  0.00    +0.000 OA
ATOM     18  H   UNL     1      -1.068   7.142   4.792  0.00  0.00    +0.000 HD
ENDBRANCH   5  17
TORSDOF 4
