MODEL 1
REMARK VINA RESULT:      -4.5      0.000      0.000
REMARK  Name = bgox31_5_ligand
REMARK  5 active torsions:
REMARK  status: ('A' for Active; 'I' for Inactive)
REMARK    1  A    between atoms: C_1  and  O_2
REMARK    2  A    between atoms: O_2  and  C_3
REMARK    3  A    between atoms: C_6  and  C_7
REMARK    4  A    between atoms: C_7  and  C_9
REMARK    5  A    between atoms: C_15  and  O_16
REMARK                            x       y       z     vdW  Elec       q    Type
REMARK                         _______ _______ _______ _____ _____    ______ ____
ROOT
ATOM      1  C   UNL     1      -7.530   9.614   1.166  0.00  0.00    +0.000 A 
ATOM      2  C   UNL     1      -6.806  10.478   0.404  0.00  0.00    +0.000 A 
ATOM      3  C   UNL     1      -6.170  10.004  -0.762  0.00  0.00    +0.000 A 
ATOM      4  C   UNL     1      -6.233   8.685  -1.165  0.00  0.00    +0.000 A 
ATOM      5  C   UNL     1      -6.963   7.799  -0.376  0.00  0.00    +0.000 A 
ATOM      6  C   UNL     1      -7.612   8.262   0.801  0.00  0.00    +0.000 A 
ENDROOT
BRANCH   1   8
ATOM      7  C   UNL     1      -7.291  11.072   3.203  0.00  0.00    +0.000 C 
ATOM      8  O   UNL     1      -8.107  10.248   2.323  0.00  0.00    +0.000 OA
ENDBRANCH   1   8
BRANCH   4   9
ATOM      9  C   UNL     1      -5.539   8.265  -2.357  0.00  0.00    +0.000 C 
ATOM     10  O   UNL     1      -6.203   7.960  -3.356  0.00  0.00    +0.000 OA
BRANCH   9  11
ATOM     11  C   UNL     1      -4.051   8.097  -2.347  0.00  0.00    +0.000 A 
ATOM     12  C   UNL     1      -3.147   9.137  -2.207  0.00  0.00    +0.000 A 
ATOM     13  C   UNL     1      -1.744   8.906  -2.212  0.00  0.00    +0.000 A 
ATOM     14  C   UNL     1      -1.219   7.656  -2.339  0.00  0.00    +0.000 A 
ATOM     15  C   UNL     1      -2.083   6.593  -2.456  0.00  0.00    +0.000 A 
ATOM     16  C   UNL     1      -3.477   6.835  -2.487  0.00  0.00    +0.000 A 
ENDBRANCH   9  11
ENDBRANCH   4   9
BRANCH   5  17
ATOM     17  O   UNL     1      -7.058   6.499  -0.747  0.00  0.00    +0.000 OA
ATOM     18  H   UNL     1      -6.445   5.826  -0.355  0.00  0.00    +0.000 HD
ENDBRANCH   5  17
TORSDOF 4
ENDMDL
MODEL 2
REMARK VINA RESULT:      -4.2      2.345      6.365
REMARK  Name = bgox31_5_ligand
REMARK  5 active torsions:
REMARK  status: ('A' for Active; 'I' for Inactive)
REMARK    1  A    between atoms: C_1  and  O_2
REMARK    2  A    between atoms: O_2  and  C_3
REMARK    3  A    between atoms: C_6  and  C_7
REMARK    4  A    between atoms: C_7  and  C_9
REMARK    5  A    between atoms: C_15  and  O_16
REMARK                            x       y       z     vdW  Elec       q    Type
REMARK                         _______ _______ _______ _____ _____    ______ ____
ROOT
ATOM      1  C   UNL     1      -5.927   8.380  -1.763  0.00  0.00    +0.000 A 
ATOM      2  C   UNL     1      -6.773   7.446  -1.250  0.00  0.00    +0.000 A 
ATOM      3  C   UNL     1      -7.540   7.761  -0.109  0.00  0.00    +0.000 A 
ATOM      4  C   UNL     1      -7.463   8.982   0.529  0.00  0.00    +0.000 A 
ATOM      5  C   UNL     1      -6.587   9.933   0.011  0.00  0.00    +0.000 A 
ATOM      6  C   UNL     1      -5.807   9.630  -1.139  0.00  0.00    +0.000 A 
ENDROOT
BRANCH   1   8
ATOM      7  C   UNL     1      -3.954   7.183  -2.767  0.00  0.00    +0.000 C 
ATOM      8  O   UNL     1      -5.211   7.902  -2.917  0.00  0.00    +0.000 OA
ENDBRANCH   1   8
BRANCH   4   9
ATOM      9  C   UNL     1      -8.261   9.229   1.705  0.00  0.00    +0.000 C 
ATOM     10  O   UNL     1      -8.947  10.258   1.754  0.00  0.00    +0.000 OA
BRANCH   9  11
ATOM     11  C   UNL     1      -8.174   8.311   2.885  0.00  0.00    +0.000 A 
ATOM     12  C   UNL     1      -6.992   7.946   3.506  0.00  0.00    +0.000 A 
ATOM     13  C   UNL     1      -6.982   7.063   4.622  0.00  0.00    +0.000 A 
ATOM     14  C   UNL     1      -8.130   6.548   5.144  0.00  0.00    +0.000 A 
ATOM     15  C   UNL     1      -9.327   6.906   4.571  0.00  0.00    +0.000 A 
ATOM     16  C   UNL     1      -9.325   7.755   3.439  0.00  0.00    +0.000 A 
ENDBRANCH   9  11
ENDBRANCH   4   9
BRANCH   5  17
ATOM     17  O   UNL     1      -6.493  11.148   0.605  0.00  0.00    +0.000 OA
ATOM     18  H   UNL     1      -6.844  11.280   1.522  0.00  0.00    +0.000 HD
ENDBRANCH   5  17
TORSDOF 4
ENDMDL
MODEL 3
REMARK VINA RESULT:      -4.2      9.323     10.575
REMARK  Name = bgox31_5_ligand
REMARK  5 active torsions:
REMARK  status: ('A' for Active; 'I' for Inactive)
REMARK    1  A    between atoms: C_1  and  O_2
REMARK    2  A    between atoms: O_2  and  C_3
REMARK    3  A    between atoms: C_6  and  C_7
REMARK    4  A    between atoms: C_7  and  C_9
REMARK    5  A    between atoms: C_15  and  O_16
REMARK                            x       y       z     vdW  Elec       q    Type
REMARK                         _______ _______ _______ _____ _____    ______ ____
ROOT
ATOM      1  C   UNL     1      -0.464  -0.391   1.963  0.00  0.00    +0.000 A 
ATOM      2  C   UNL     1      -0.455  -0.663   0.630  0.00  0.00    +0.000 A 
ATOM      3  C   UNL     1       0.590  -0.158  -0.171  0.00  0.00    +0.000 A 
ATOM      4  C   UNL     1       1.610   0.622   0.335  0.00  0.00    +0.000 A 
ATOM      5  C   UNL     1       1.593   0.910   1.698  0.00  0.00    +0.000 A 
ATOM      6  C   UNL     1       0.546   0.408   2.518  0.00  0.00    +0.000 A 
ENDROOT
BRANCH   1   8
ATOM      7  C   UNL     1      -2.224  -2.181   2.134  0.00  0.00    +0.000 C 
ATOM      8  O   UNL     1      -1.598  -0.968   2.637  0.00  0.00    +0.000 OA
ENDBRANCH   1   8
BRANCH   4   9
ATOM      9  C   UNL     1       2.636   1.123  -0.547  0.00  0.00    +0.000 C 
ATOM     10  O   UNL     1       3.772   0.638  -0.474  0.00  0.00    +0.000 OA
BRANCH   9  11
ATOM     11  C   UNL     1       2.355   2.281  -1.453  0.00  0.00    +0.000 A 
ATOM     12  C   UNL     1       2.423   3.610  -1.069  0.00  0.00    +0.000 A 
ATOM     13  C   UNL     1       2.137   4.662  -1.983  0.00  0.00    +0.000 A 
ATOM     14  C   UNL     1       1.798   4.418  -3.280  0.00  0.00    +0.000 A 
ATOM     15  C   UNL     1       1.743   3.113  -3.707  0.00  0.00    +0.000 A 
ATOM     16  C   UNL     1       1.994   2.072  -2.783  0.00  0.00    +0.000 A 
ENDBRANCH   9  11
ENDBRANCH   4   9
BRANCH   5  17
ATOM     17  O   UNL     1       2.585   1.663   2.233  0.00  0.00    +0.000 OA
ATOM     18  H   UNL     1       3.399   1.858   1.704  0.00  0.00    +0.000 HD
ENDBRANCH   5  17
TORSDOF 4
ENDMDL
MODEL 4
REMARK VINA RESULT:      -4.2      9.551     10.609
REMARK  Name = bgox31_5_ligand
REMARK  5 active torsions:
REMARK  status: ('A' for Active; 'I' for Inactive)
REMARK    1  A    between atoms: C_1  and  O_2
REMARK    2  A    between atoms: O_2  and  C_3
REMARK    3  A    between atoms: C_6  and  C_7
REMARK    4  A    between atoms: C_7  and  C_9
REMARK    5  A    between atoms: C_15  and  O_16
REMARK                            x       y       z     vdW  Elec       q    Type
REMARK                         _______ _______ _______ _____ _____    ______ ____
ROOT
ATOM      1  C   UNL     1      -0.549  -0.583   2.395  0.00  0.00    +0.000 A 
ATOM      2  C   UNL     1       0.387   0.370   2.652  0.00  0.00    +0.000 A 
ATOM      3  C   UNL     1       1.324   0.704   1.653  0.00  0.00    +0.000 A 
ATOM      4  C   UNL     1       1.348   0.093   0.416  0.00  0.00    +0.000 A 
ATOM      5  C   UNL     1       0.398  -0.892   0.158  0.00  0.00    +0.000 A 
ATOM      6  C   UNL     1      -0.554  -1.240   1.156  0.00  0.00    +0.000 A 
ENDROOT
BRANCH   1   8
ATOM      7  C   UNL     1      -1.085  -0.314   4.839  0.00  0.00    +0.000 C 
ATOM      8  O   UNL     1      -1.423  -0.816   3.516  0.00  0.00    +0.000 OA
ENDBRANCH   1   8
BRANCH   4   9
ATOM      9  C   UNL     1       2.350   0.471  -0.552  0.00  0.00    +0.000 C 
ATOM     10  O   UNL     1       3.320  -0.278  -0.726  0.00  0.00    +0.000 OA
BRANCH   9  11
ATOM     11  C   UNL     1       2.269   1.794  -1.248  0.00  0.00    +0.000 A 
ATOM     12  C   UNL     1       2.756   2.982  -0.729  0.00  0.00    +0.000 A 
ATOM     13  C   UNL     1       2.640   4.206  -1.444  0.00  0.00    +0.000 A 
ATOM     14  C   UNL     1       2.062   4.270  -2.675  0.00  0.00    +0.000 A 
ATOM     15  C   UNL     1       1.588   3.108  -3.236  0.00  0.00    +0.000 A 
ATOM     16  C   UNL     1       1.674   1.901  -2.503  0.00  0.00    +0.000 A 
ENDBRANCH   9  11
ENDBRANCH   4   9
BRANCH   5  17
ATOM     17  O   UNL     1       0.383  -1.506  -1.050  0.00  0.00    +0.000 OA
ATOM     18  H   UNL     1       1.226  -1.845  -1.443  0.00  0.00    +0.000 HD
ENDBRANCH   5  17
TORSDOF 4
ENDMDL
MODEL 5
REMARK VINA RESULT:      -4.2      8.665     10.304
REMARK  Name = bgox31_5_ligand
REMARK  5 active torsions:
REMARK  status: ('A' for Active; 'I' for Inactive)
REMARK    1  A    between atoms: C_1  and  O_2
REMARK    2  A    between atoms: O_2  and  C_3
REMARK    3  A    between atoms: C_6  and  C_7
REMARK    4  A    between atoms: C_7  and  C_9
REMARK    5  A    between atoms: C_15  and  O_16
REMARK                            x       y       z     vdW  Elec       q    Type
REMARK                         _______ _______ _______ _____ _____    ______ ____
ROOT
ATOM      1  C   UNL     1       0.032  13.288   8.792  0.00  0.00    +0.000 A 
ATOM      2  C   UNL     1       1.308  13.225   8.324  0.00  0.00    +0.000 A 
ATOM      3  C   UNL     1       1.564  13.533   6.972  0.00  0.00    +0.000 A 
ATOM      4  C   UNL     1       0.568  13.886   6.084  0.00  0.00    +0.000 A 
ATOM      5  C   UNL     1      -0.740  13.938   6.561  0.00  0.00    +0.000 A 
ATOM      6  C   UNL     1      -1.013  13.631   7.922  0.00  0.00    +0.000 A 
ENDROOT
BRANCH   1   8
ATOM      7  C   UNL     1      -0.682  11.684  10.594  0.00  0.00    +0.000 C 
ATOM      8  O   UNL     1      -0.064  12.937  10.185  0.00  0.00    +0.000 OA
ENDBRANCH   1   8
BRANCH   4   9
ATOM      9  C   UNL     1       0.899  14.168   4.708  0.00  0.00    +0.000 C 
ATOM     10  O   UNL     1       0.802  15.331   4.299  0.00  0.00    +0.000 OA
BRANCH   9  11
ATOM     11  C   UNL     1       1.247  13.053   3.771  0.00  0.00    +0.000 A 
ATOM     12  C   UNL     1       2.514  12.511   3.636  0.00  0.00    +0.000 A 
ATOM     13  C   UNL     1       2.776  11.455   2.720  0.00  0.00    +0.000 A 
ATOM     14  C   UNL     1       1.796  10.915   1.943  0.00  0.00    +0.000 A 
ATOM     15  C   UNL     1       0.519  11.410   2.064  0.00  0.00    +0.000 A 
ATOM     16  C   UNL     1       0.275  12.484   2.951  0.00  0.00    +0.000 A 
ENDBRANCH   9  11
ENDBRANCH   4   9
BRANCH   5  17
ATOM     17  O   UNL     1      -1.743  14.292   5.721  0.00  0.00    +0.000 OA
ATOM     18  H   UNL     1      -1.640  14.163   4.744  0.00  0.00    +0.000 HD
ENDBRANCH   5  17
TORSDOF 4
ENDMDL
MODEL 6
REMARK VINA RESULT:      -4.1     13.416     14.668
REMARK  Name = bgox31_5_ligand
REMARK  5 active torsions:
REMARK  status: ('A' for Active; 'I' for Inactive)
REMARK    1  A    between atoms: C_1  and  O_2
REMARK    2  A    between atoms: O_2  and  C_3
REMARK    3  A    between atoms: C_6  and  C_7
REMARK    4  A    between atoms: C_7  and  C_9
REMARK    5  A    between atoms: C_15  and  O_16
REMARK                            x       y       z     vdW  Elec       q    Type
REMARK                         _______ _______ _______ _____ _____    ______ ____
ROOT
ATOM      1  C   UNL     1       4.092   3.710   9.747  0.00  0.00    +0.000 A 
ATOM      2  C   UNL     1       3.745   3.094   8.585  0.00  0.00    +0.000 A 
ATOM      3  C   UNL     1       2.654   2.201   8.575  0.00  0.00    +0.000 A 
ATOM      4  C   UNL     1       1.919   1.906   9.705  0.00  0.00    +0.000 A 
ATOM      5  C   UNL     1       2.282   2.527  10.898  0.00  0.00    +0.000 A 
ATOM      6  C   UNL     1       3.381   3.431  10.923  0.00  0.00    +0.000 A 
ENDROOT
BRANCH   1   8
ATOM      7  C   UNL     1       6.584   4.055   9.689  0.00  0.00    +0.000 C 
ATOM      8  O   UNL     1       5.229   4.579   9.594  0.00  0.00    +0.000 OA
ENDBRANCH   1   8
BRANCH   4   9
ATOM      9  C   UNL     1       0.827   0.966   9.627  0.00  0.00    +0.000 C 
ATOM     10  O   UNL     1       0.908  -0.094  10.261  0.00  0.00    +0.000 OA
BRANCH   9  11
ATOM     11  C   UNL     1      -0.328   1.223   8.710  0.00  0.00    +0.000 A 
ATOM     12  C   UNL     1      -1.214   2.279   8.844  0.00  0.00    +0.000 A 
ATOM     13  C   UNL     1      -2.295   2.460   7.938  0.00  0.00    +0.000 A 
ATOM     14  C   UNL     1      -2.505   1.617   6.888  0.00  0.00    +0.000 A 
ATOM     15  C   UNL     1      -1.634   0.570   6.706  0.00  0.00    +0.000 A 
ATOM     16  C   UNL     1      -0.582   0.376   7.633  0.00  0.00    +0.000 A 
ENDBRANCH   9  11
ENDBRANCH   4   9
BRANCH   5  17
ATOM     17  O   UNL     1       1.577   2.272  12.026  0.00  0.00    +0.000 OA
ATOM     18  H   UNL     1       1.194   3.019  12.551  0.00  0.00    +0.000 HD
ENDBRANCH   5  17
TORSDOF 4
ENDMDL
MODEL 7
REMARK VINA RESULT:      -4.1      8.123      9.406
REMARK  Name = bgox31_5_ligand
REMARK  5 active torsions:
REMARK  status: ('A' for Active; 'I' for Inactive)
REMARK    1  A    between atoms: C_1  and  O_2
REMARK    2  A    between atoms: O_2  and  C_3
REMARK    3  A    between atoms: C_6  and  C_7
REMARK    4  A    between atoms: C_7  and  C_9
REMARK    5  A    between atoms: C_15  and  O_16
REMARK                            x       y       z     vdW  Elec       q    Type
REMARK                         _______ _______ _______ _____ _____    ______ ____
ROOT
ATOM      1  C   UNL     1       1.034  14.714   5.277  0.00  0.00    +0.000 A 
ATOM      2  C   UNL     1       1.726  13.582   5.575  0.00  0.00    +0.000 A 
ATOM      3  C   UNL     1       1.752  12.523   4.643  0.00  0.00    +0.000 A 
ATOM      4  C   UNL     1       1.089  12.576   3.433  0.00  0.00    +0.000 A 
ATOM      5  C   UNL     1       0.370  13.731   3.135  0.00  0.00    +0.000 A 
ATOM      6  C   UNL     1       0.335  14.806   4.065  0.00  0.00    +0.000 A 
ENDROOT
BRANCH   1   8
ATOM      7  C   UNL     1       1.207  15.280   7.723  0.00  0.00    +0.000 C 
ATOM      8  O   UNL     1       1.096  15.693   6.331  0.00  0.00    +0.000 OA
ENDBRANCH   1   8
BRANCH   4   9
ATOM      9  C   UNL     1       1.141  11.447   2.537  0.00  0.00    +0.000 C 
ATOM     10  O   UNL     1       0.162  10.692   2.472  0.00  0.00    +0.000 OA
BRANCH   9  11
ATOM     11  C   UNL     1       2.398  11.136   1.784  0.00  0.00    +0.000 A 
ATOM     12  C   UNL     1       3.587  10.743   2.375  0.00  0.00    +0.000 A 
ATOM     13  C   UNL     1       4.746  10.468   1.597  0.00  0.00    +0.000 A 
ATOM     14  C   UNL     1       4.742  10.561   0.238  0.00  0.00    +0.000 A 
ATOM     15  C   UNL     1       3.574  10.925  -0.388  0.00  0.00    +0.000 A 
ATOM     16  C   UNL     1       2.436  11.232   0.394  0.00  0.00    +0.000 A 
ENDBRANCH   9  11
ENDBRANCH   4   9
BRANCH   5  17
ATOM     17  O   UNL     1      -0.285  13.823   1.953  0.00  0.00    +0.000 OA
ATOM     18  H   UNL     1       0.149  13.504   1.121  0.00  0.00    +0.000 HD
ENDBRANCH   5  17
TORSDOF 4
ENDMDL
MODEL 8
REMARK VINA RESULT:      -4.1      2.309      5.789
REMARK  Name = bgox31_5_ligand
REMARK  5 active torsions:
REMARK  status: ('A' for Active; 'I' for Inactive)
REMARK    1  A    between atoms: C_1  and  O_2
REMARK    2  A    between atoms: O_2  and  C_3
REMARK    3  A    between atoms: C_6  and  C_7
REMARK    4  A    between atoms: C_7  and  C_9
REMARK    5  A    between atoms: C_15  and  O_16
REMARK                            x       y       z     vdW  Elec       q    Type
REMARK                         _______ _______ _______ _____ _____    ______ ____
ROOT
ATOM      1  C   UNL     1      -5.395   9.503  -1.795  0.00  0.00    +0.000 A 
ATOM      2  C   UNL     1      -5.903  10.416  -0.924  0.00  0.00    +0.000 A 
ATOM      3  C   UNL     1      -6.848  10.001   0.038  0.00  0.00    +0.000 A 
ATOM      4  C   UNL     1      -7.299   8.700   0.130  0.00  0.00    +0.000 A 
ATOM      5  C   UNL     1      -6.788   7.769  -0.771  0.00  0.00    +0.000 A 
ATOM      6  C   UNL     1      -5.835   8.172  -1.746  0.00  0.00    +0.000 A 
ENDROOT
BRANCH   1   8
ATOM      7  C   UNL     1      -3.812  11.356  -2.421  0.00  0.00    +0.000 C 
ATOM      8  O   UNL     1      -4.454  10.083  -2.717  0.00  0.00    +0.000 OA
ENDBRANCH   1   8
BRANCH   4   9
ATOM      9  C   UNL     1      -8.284   8.351   1.125  0.00  0.00    +0.000 C 
ATOM     10  O   UNL     1      -9.401   7.972   0.750  0.00  0.00    +0.000 OA
BRANCH   9  11
ATOM     11  C   UNL     1      -7.992   8.549   2.580  0.00  0.00    +0.000 A 
ATOM     12  C   UNL     1      -8.596   9.507   3.376  0.00  0.00    +0.000 A 
ATOM     13  C   UNL     1      -8.267   9.643   4.753  0.00  0.00    +0.000 A 
ATOM     14  C   UNL     1      -7.356   8.833   5.360  0.00  0.00    +0.000 A 
ATOM     15  C   UNL     1      -6.751   7.852   4.610  0.00  0.00    +0.000 A 
ATOM     16  C   UNL     1      -7.058   7.747   3.233  0.00  0.00    +0.000 A 
ENDBRANCH   9  11
ENDBRANCH   4   9
BRANCH   5  17
ATOM     17  O   UNL     1      -7.200   6.480  -0.704  0.00  0.00    +0.000 OA
ATOM     18  H   UNL     1      -7.177   5.909  -1.513  0.00  0.00    +0.000 HD
ENDBRANCH   5  17
TORSDOF 4
ENDMDL
MODEL 9
REMARK VINA RESULT:      -4.1      8.526     11.345
REMARK  Name = bgox31_5_ligand
REMARK  5 active torsions:
REMARK  status: ('A' for Active; 'I' for Inactive)
REMARK    1  A    between atoms: C_1  and  O_2
REMARK    2  A    between atoms: O_2  and  C_3
REMARK    3  A    between atoms: C_6  and  C_7
REMARK    4  A    between atoms: C_7  and  C_9
REMARK    5  A    between atoms: C_15  and  O_16
REMARK                            x       y       z     vdW  Elec       q    Type
REMARK                         _______ _______ _______ _____ _____    ______ ____
ROOT
ATOM      1  C   UNL     1       1.310  12.542   2.807  0.00  0.00    +0.000 A 
ATOM      2  C   UNL     1       2.069  12.363   3.921  0.00  0.00    +0.000 A 
ATOM      3  C   UNL     1       1.698  13.007   5.120  0.00  0.00    +0.000 A 
ATOM      4  C   UNL     1       0.596  13.833   5.215  0.00  0.00    +0.000 A 
ATOM      5  C   UNL     1      -0.173  14.026   4.070  0.00  0.00    +0.000 A 
ATOM      6  C   UNL     1       0.188  13.383   2.854  0.00  0.00    +0.000 A 
ENDROOT
BRANCH   1   8
ATOM      7  C   UNL     1       0.922  11.263   0.675  0.00  0.00    +0.000 C 
ATOM      8  O   UNL     1       1.824  11.828   1.667  0.00  0.00    +0.000 OA
ENDBRANCH   1   8
BRANCH   4   9
ATOM      9  C   UNL     1       0.288  14.477   6.469  0.00  0.00    +0.000 C 
ATOM     10  O   UNL     1       0.576  15.673   6.610  0.00  0.00    +0.000 OA
BRANCH   9  11
ATOM     11  C   UNL     1      -0.267  13.684   7.611  0.00  0.00    +0.000 A 
ATOM     12  C   UNL     1       0.504  13.016   8.547  0.00  0.00    +0.000 A 
ATOM     13  C   UNL     1      -0.091  12.275   9.606  0.00  0.00    +0.000 A 
ATOM     14  C   UNL     1      -1.442  12.198   9.761  0.00  0.00    +0.000 A 
ATOM     15  C   UNL     1      -2.242  12.868   8.866  0.00  0.00    +0.000 A 
ATOM     16  C   UNL     1      -1.643  13.572   7.796  0.00  0.00    +0.000 A 
ENDBRANCH   9  11
ENDBRANCH   4   9
BRANCH   5  17
ATOM     17  O   UNL     1      -1.269  14.821   4.128  0.00  0.00    +0.000 OA
ATOM     18  H   UNL     1      -1.832  14.828   4.942  0.00  0.00    +0.000 HD
ENDBRANCH   5  17
TORSDOF 4
ENDMDL
