REMARK  Name = bgox31_4_ligand
REMARK  5 active torsions:
REMARK  status: ('A' for Active; 'I' for Inactive)
REMARK    1  A    between atoms: C_1  and  O_2
REMARK    2  A    between atoms: O_2  and  C_3
REMARK    3  A    between atoms: C_6  and  C_7
REMARK    4  A    between atoms: C_7  and  C_9
REMARK    5  A    between atoms: C_15  and  O_16
REMARK                            x       y       z     vdW  Elec       q    Type
REMARK                         _______ _______ _______ _____ _____    ______ ____
ROOT
ATOM      1  C   UNL     1      -1.625  -3.350 -10.861  0.00  0.00    +0.000 A 
ATOM      2  C   UNL     1      -1.199  -4.534 -10.324  0.00  0.00    +0.000 A 
ATOM      3  C   UNL     1      -1.266  -4.771  -8.903  0.00  0.00    +0.000 A 
ATOM      4  C   UNL     1      -1.728  -3.715  -8.105  0.00  0.00    +0.000 A 
ATOM      5  C   UNL     1      -2.173  -2.531  -8.678  0.00  0.00    +0.000 A 
ATOM      6  C   UNL     1      -2.122  -2.314 -10.068  0.00  0.00    +0.000 A 
ENDROOT
BRANCH   1   8
ATOM      7  C   UNL     1      -1.877  -1.851 -12.703  0.00  0.00    +0.000 C 
ATOM      8  O   UNL     1      -1.569  -3.187 -12.223  0.00  0.00    +0.000 OA
ENDBRANCH   1   8
BRANCH   4   9
ATOM      9  C   UNL     1      -1.759  -3.957  -6.652  0.00  0.00    +0.000 C 
ATOM     10  O   UNL     1      -2.562  -4.860  -6.243  0.00  0.00    +0.000 OA
BRANCH   9  11
ATOM     11  C   UNL     1      -0.782  -3.420  -5.701  0.00  0.00    +0.000 A 
ATOM     12  C   UNL     1      -0.809  -3.947  -4.403  0.00  0.00    +0.000 A 
ATOM     13  C   UNL     1       0.051  -3.399  -3.425  0.00  0.00    +0.000 A 
ATOM     14  C   UNL     1       0.813  -2.316  -3.729  0.00  0.00    +0.000 A 
ATOM     15  C   UNL     1       0.809  -1.740  -4.988  0.00  0.00    +0.000 A 
ATOM     16  C   UNL     1      -0.020  -2.272  -5.996  0.00  0.00    +0.000 A 
ENDBRANCH   9  11
ENDBRANCH   4   9
BRANCH   5  17
ATOM     17  O   UNL     1      -2.647  -1.523  -7.821  0.00  0.00    +0.000 OA
ATOM     18  H   UNL     1      -2.972  -0.666  -8.196  0.00  0.00    +0.000 HD
ENDBRANCH   5  17
TORSDOF 4
