MODEL 1
REMARK VINA RESULT:      -4.9      0.000      0.000
REMARK  Name = bgox31_4_ligand
REMARK  5 active torsions:
REMARK  status: ('A' for Active; 'I' for Inactive)
REMARK    1  A    between atoms: C_1  and  O_2
REMARK    2  A    between atoms: O_2  and  C_3
REMARK    3  A    between atoms: C_6  and  C_7
REMARK    4  A    between atoms: C_7  and  C_9
REMARK    5  A    between atoms: C_15  and  O_16
REMARK                            x       y       z     vdW  Elec       q    Type
REMARK                         _______ _______ _______ _____ _____    ______ ____
ROOT
ATOM      1  C   UNL     1      -0.289  -2.936  -4.013  0.00  0.00    +0.000 A 
ATOM      2  C   UNL     1      -0.999  -3.514  -2.997  0.00  0.00    +0.000 A 
ATOM      3  C   UNL     1      -2.005  -4.512  -3.268  0.00  0.00    +0.000 A 
ATOM      4  C   UNL     1      -2.255  -4.810  -4.615  0.00  0.00    +0.000 A 
ATOM      5  C   UNL     1      -1.506  -4.222  -5.626  0.00  0.00    +0.000 A 
ATOM      6  C   UNL     1      -0.513  -3.263  -5.352  0.00  0.00    +0.000 A 
ENDROOT
BRANCH   1   8
ATOM      7  C   UNL     1       1.411  -1.470  -4.829  0.00  0.00    +0.000 C 
ATOM      8  O   UNL     1       0.679  -2.014  -3.699  0.00  0.00    +0.000 OA
ENDBRANCH   1   8
BRANCH   4   9
ATOM      9  C   UNL     1      -3.309  -5.805  -4.881  0.00  0.00    +0.000 C 
ATOM     10  O   UNL     1      -4.342  -5.387  -5.502  0.00  0.00    +0.000 OA
BRANCH   9  11
ATOM     11  C   UNL     1      -3.147  -7.250  -4.703  0.00  0.00    +0.000 A 
ATOM     12  C   UNL     1      -4.295  -7.976  -4.355  0.00  0.00    +0.000 A 
ATOM     13  C   UNL     1      -4.174  -9.357  -4.084  0.00  0.00    +0.000 A 
ATOM     14  C   UNL     1      -2.944  -9.935  -4.070  0.00  0.00    +0.000 A 
ATOM     15  C   UNL     1      -1.790  -9.224  -4.350  0.00  0.00    +0.000 A 
ATOM     16  C   UNL     1      -1.873  -7.849  -4.646  0.00  0.00    +0.000 A 
ENDBRANCH   9  11
ENDBRANCH   4   9
BRANCH   5  17
ATOM     17  O   UNL     1      -1.793  -4.585  -6.953  0.00  0.00    +0.000 OA
ATOM     18  H   UNL     1      -2.268  -3.951  -7.548  0.00  0.00    +0.000 HD
ENDBRANCH   5  17
TORSDOF 4
ENDMDL
MODEL 2
REMARK VINA RESULT:      -4.7      2.353      3.570
REMARK  Name = bgox31_4_ligand
REMARK  5 active torsions:
REMARK  status: ('A' for Active; 'I' for Inactive)
REMARK    1  A    between atoms: C_1  and  O_2
REMARK    2  A    between atoms: O_2  and  C_3
REMARK    3  A    between atoms: C_6  and  C_7
REMARK    4  A    between atoms: C_7  and  C_9
REMARK    5  A    between atoms: C_15  and  O_16
REMARK                            x       y       z     vdW  Elec       q    Type
REMARK                         _______ _______ _______ _____ _____    ______ ____
ROOT
ATOM      1  C   UNL     1       0.302  -2.904  -4.315  0.00  0.00    +0.000 A 
ATOM      2  C   UNL     1      -0.257  -3.188  -3.100  0.00  0.00    +0.000 A 
ATOM      3  C   UNL     1      -1.457  -3.983  -3.002  0.00  0.00    +0.000 A 
ATOM      4  C   UNL     1      -2.046  -4.392  -4.207  0.00  0.00    +0.000 A 
ATOM      5  C   UNL     1      -1.446  -4.106  -5.426  0.00  0.00    +0.000 A 
ATOM      6  C   UNL     1      -0.265  -3.346  -5.512  0.00  0.00    +0.000 A 
ENDROOT
BRANCH   1   8
ATOM      7  C   UNL     1       1.468  -1.061  -5.289  0.00  0.00    +0.000 C 
ATOM      8  O   UNL     1       1.462  -2.170  -4.351  0.00  0.00    +0.000 OA
ENDBRANCH   1   8
BRANCH   4   9
ATOM      9  C   UNL     1      -3.290  -5.173  -4.095  0.00  0.00    +0.000 C 
ATOM     10  O   UNL     1      -3.192  -6.429  -4.295  0.00  0.00    +0.000 OA
BRANCH   9  11
ATOM     11  C   UNL     1      -4.546  -4.658  -3.544  0.00  0.00    +0.000 A 
ATOM     12  C   UNL     1      -4.962  -3.397  -3.992  0.00  0.00    +0.000 A 
ATOM     13  C   UNL     1      -6.118  -2.816  -3.424  0.00  0.00    +0.000 A 
ATOM     14  C   UNL     1      -6.747  -3.439  -2.394  0.00  0.00    +0.000 A 
ATOM     15  C   UNL     1      -6.317  -4.657  -1.893  0.00  0.00    +0.000 A 
ATOM     16  C   UNL     1      -5.180  -5.277  -2.449  0.00  0.00    +0.000 A 
ENDBRANCH   9  11
ENDBRANCH   4   9
BRANCH   5  17
ATOM     17  O   UNL     1      -2.077  -4.569  -6.594  0.00  0.00    +0.000 OA
ATOM     18  H   UNL     1      -1.717  -5.356  -7.073  0.00  0.00    +0.000 HD
ENDBRANCH   5  17
TORSDOF 4
ENDMDL
MODEL 3
REMARK VINA RESULT:      -4.7      2.691      5.895
REMARK  Name = bgox31_4_ligand
REMARK  5 active torsions:
REMARK  status: ('A' for Active; 'I' for Inactive)
REMARK    1  A    between atoms: C_1  and  O_2
REMARK    2  A    between atoms: O_2  and  C_3
REMARK    3  A    between atoms: C_6  and  C_7
REMARK    4  A    between atoms: C_7  and  C_9
REMARK    5  A    between atoms: C_15  and  O_16
REMARK                            x       y       z     vdW  Elec       q    Type
REMARK                         _______ _______ _______ _____ _____    ______ ____
ROOT
ATOM      1  C   UNL     1      -5.558  -4.468  -3.230  0.00  0.00    +0.000 A 
ATOM      2  C   UNL     1      -4.487  -5.264  -2.925  0.00  0.00    +0.000 A 
ATOM      3  C   UNL     1      -3.237  -5.127  -3.630  0.00  0.00    +0.000 A 
ATOM      4  C   UNL     1      -3.195  -4.189  -4.671  0.00  0.00    +0.000 A 
ATOM      5  C   UNL     1      -4.289  -3.381  -4.946  0.00  0.00    +0.000 A 
ATOM      6  C   UNL     1      -5.501  -3.507  -4.241  0.00  0.00    +0.000 A 
ENDROOT
BRANCH   1   8
ATOM      7  C   UNL     1      -6.540  -4.772  -1.074  0.00  0.00    +0.000 C 
ATOM      8  O   UNL     1      -6.716  -4.618  -2.508  0.00  0.00    +0.000 OA
ENDBRANCH   1   8
BRANCH   4   9
ATOM      9  C   UNL     1      -1.922  -4.083  -5.406  0.00  0.00    +0.000 C 
ATOM     10  O   UNL     1      -1.858  -4.697  -6.523  0.00  0.00    +0.000 OA
BRANCH   9  11
ATOM     11  C   UNL     1      -0.846  -3.147  -5.070  0.00  0.00    +0.000 A 
ATOM     12  C   UNL     1      -0.246  -2.465  -6.136  0.00  0.00    +0.000 A 
ATOM     13  C   UNL     1       0.856  -1.620  -5.874  0.00  0.00    +0.000 A 
ATOM     14  C   UNL     1       1.374  -1.559  -4.620  0.00  0.00    +0.000 A 
ATOM     15  C   UNL     1       0.836  -2.274  -3.563  0.00  0.00    +0.000 A 
ATOM     16  C   UNL     1      -0.277  -3.110  -3.781  0.00  0.00    +0.000 A 
ENDBRANCH   9  11
ENDBRANCH   4   9
BRANCH   5  17
ATOM     17  O   UNL     1      -4.170  -2.444  -5.987  0.00  0.00    +0.000 OA
ATOM     18  H   UNL     1      -4.709  -1.613  -5.970  0.00  0.00    +0.000 HD
ENDBRANCH   5  17
TORSDOF 4
ENDMDL
MODEL 4
REMARK VINA RESULT:      -4.7      3.424      6.194
REMARK  Name = bgox31_4_ligand
REMARK  5 active torsions:
REMARK  status: ('A' for Active; 'I' for Inactive)
REMARK    1  A    between atoms: C_1  and  O_2
REMARK    2  A    between atoms: O_2  and  C_3
REMARK    3  A    between atoms: C_6  and  C_7
REMARK    4  A    between atoms: C_7  and  C_9
REMARK    5  A    between atoms: C_15  and  O_16
REMARK                            x       y       z     vdW  Elec       q    Type
REMARK                         _______ _______ _______ _____ _____    ______ ____
ROOT
ATOM      1  C   UNL     1      -1.141  -6.266  -9.624  0.00  0.00    +0.000 A 
ATOM      2  C   UNL     1      -0.267  -5.216  -9.702  0.00  0.00    +0.000 A 
ATOM      3  C   UNL     1      -0.345  -4.115  -8.774  0.00  0.00    +0.000 A 
ATOM      4  C   UNL     1      -1.388  -4.147  -7.838  0.00  0.00    +0.000 A 
ATOM      5  C   UNL     1      -2.249  -5.235  -7.769  0.00  0.00    +0.000 A 
ATOM      6  C   UNL     1      -2.155  -6.315  -8.666  0.00  0.00    +0.000 A 
ENDROOT
BRANCH   1   8
ATOM      7  C   UNL     1       0.364  -7.646 -10.862  0.00  0.00    +0.000 C 
ATOM      8  O   UNL     1      -1.003  -7.304 -10.512  0.00  0.00    +0.000 OA
ENDBRANCH   1   8
BRANCH   4   9
ATOM      9  C   UNL     1      -1.479  -3.000  -6.918  0.00  0.00    +0.000 C 
ATOM     10  O   UNL     1      -2.531  -2.284  -7.004  0.00  0.00    +0.000 OA
BRANCH   9  11
ATOM     11  C   UNL     1      -0.584  -2.778  -5.780  0.00  0.00    +0.000 A 
ATOM     12  C   UNL     1      -0.965  -3.346  -4.557  0.00  0.00    +0.000 A 
ATOM     13  C   UNL     1      -0.184  -3.085  -3.409  0.00  0.00    +0.000 A 
ATOM     14  C   UNL     1       0.859  -2.217  -3.487  0.00  0.00    +0.000 A 
ATOM     15  C   UNL     1       1.216  -1.596  -4.672  0.00  0.00    +0.000 A 
ATOM     16  C   UNL     1       0.473  -1.848  -5.843  0.00  0.00    +0.000 A 
ENDBRANCH   9  11
ENDBRANCH   4   9
BRANCH   5  17
ATOM     17  O   UNL     1      -3.258  -5.213  -6.790  0.00  0.00    +0.000 OA
ATOM     18  H   UNL     1      -3.465  -4.372  -6.311  0.00  0.00    +0.000 HD
ENDBRANCH   5  17
TORSDOF 4
ENDMDL
MODEL 5
REMARK VINA RESULT:      -4.6      1.373      2.180
REMARK  Name = bgox31_4_ligand
REMARK  5 active torsions:
REMARK  status: ('A' for Active; 'I' for Inactive)
REMARK    1  A    between atoms: C_1  and  O_2
REMARK    2  A    between atoms: O_2  and  C_3
REMARK    3  A    between atoms: C_6  and  C_7
REMARK    4  A    between atoms: C_7  and  C_9
REMARK    5  A    between atoms: C_15  and  O_16
REMARK                            x       y       z     vdW  Elec       q    Type
REMARK                         _______ _______ _______ _____ _____    ______ ____
ROOT
ATOM      1  C   UNL     1      -0.161  -2.885  -4.067  0.00  0.00    +0.000 A 
ATOM      2  C   UNL     1      -0.246  -3.283  -5.374  0.00  0.00    +0.000 A 
ATOM      3  C   UNL     1      -1.242  -4.238  -5.795  0.00  0.00    +0.000 A 
ATOM      4  C   UNL     1      -2.066  -4.776  -4.797  0.00  0.00    +0.000 A 
ATOM      5  C   UNL     1      -1.971  -4.340  -3.482  0.00  0.00    +0.000 A 
ATOM      6  C   UNL     1      -1.009  -3.393  -3.082  0.00  0.00    +0.000 A 
ENDROOT
BRANCH   1   8
ATOM      7  C   UNL     1       1.578  -1.435  -4.827  0.00  0.00    +0.000 C 
ATOM      8  O   UNL     1       0.784  -1.950  -3.725  0.00  0.00    +0.000 OA
ENDBRANCH   1   8
BRANCH   4   9
ATOM      9  C   UNL     1      -3.056  -5.776  -5.234  0.00  0.00    +0.000 C 
ATOM     10  O   UNL     1      -4.238  -5.349  -5.453  0.00  0.00    +0.000 OA
BRANCH   9  11
ATOM     11  C   UNL     1      -2.725  -7.139  -5.658  0.00  0.00    +0.000 A 
ATOM     12  C   UNL     1      -2.105  -7.963  -4.710  0.00  0.00    +0.000 A 
ATOM     13  C   UNL     1      -1.684  -9.255  -5.097  0.00  0.00    +0.000 A 
ATOM     14  C   UNL     1      -1.797  -9.639  -6.396  0.00  0.00    +0.000 A 
ATOM     15  C   UNL     1      -2.350  -8.817  -7.363  0.00  0.00    +0.000 A 
ATOM     16  C   UNL     1      -2.801  -7.529  -7.010  0.00  0.00    +0.000 A 
ENDBRANCH   9  11
ENDBRANCH   4   9
BRANCH   5  17
ATOM     17  O   UNL     1      -2.846  -4.903  -2.537  0.00  0.00    +0.000 OA
ATOM     18  H   UNL     1      -3.574  -4.356  -2.147  0.00  0.00    +0.000 HD
ENDBRANCH   5  17
TORSDOF 4
ENDMDL
MODEL 6
REMARK VINA RESULT:      -4.6      1.803      5.878
REMARK  Name = bgox31_4_ligand
REMARK  5 active torsions:
REMARK  status: ('A' for Active; 'I' for Inactive)
REMARK    1  A    between atoms: C_1  and  O_2
REMARK    2  A    between atoms: O_2  and  C_3
REMARK    3  A    between atoms: C_6  and  C_7
REMARK    4  A    between atoms: C_7  and  C_9
REMARK    5  A    between atoms: C_15  and  O_16
REMARK                            x       y       z     vdW  Elec       q    Type
REMARK                         _______ _______ _______ _____ _____    ______ ____
ROOT
ATOM      1  C   UNL     1      -2.501  -8.060  -6.392  0.00  0.00    +0.000 A 
ATOM      2  C   UNL     1      -2.161  -7.871  -5.080  0.00  0.00    +0.000 A 
ATOM      3  C   UNL     1      -2.084  -6.545  -4.517  0.00  0.00    +0.000 A 
ATOM      4  C   UNL     1      -2.312  -5.472  -5.390  0.00  0.00    +0.000 A 
ATOM      5  C   UNL     1      -2.675  -5.693  -6.712  0.00  0.00    +0.000 A 
ATOM      6  C   UNL     1      -2.766  -6.991  -7.249  0.00  0.00    +0.000 A 
ENDROOT
BRANCH   1   8
ATOM      7  C   UNL     1      -1.838 -10.339  -6.125  0.00  0.00    +0.000 C 
ATOM      8  O   UNL     1      -2.591  -9.344  -6.870  0.00  0.00    +0.000 OA
ENDBRANCH   1   8
BRANCH   4   9
ATOM      9  C   UNL     1      -2.196  -4.122  -4.812  0.00  0.00    +0.000 C 
ATOM     10  O   UNL     1      -3.179  -3.719  -4.105  0.00  0.00    +0.000 OA
BRANCH   9  11
ATOM     11  C   UNL     1      -0.962  -3.333  -4.789  0.00  0.00    +0.000 A 
ATOM     12  C   UNL     1      -0.406  -3.066  -3.531  0.00  0.00    +0.000 A 
ATOM     13  C   UNL     1       0.733  -2.233  -3.450  0.00  0.00    +0.000 A 
ATOM     14  C   UNL     1       1.208  -1.631  -4.572  0.00  0.00    +0.000 A 
ATOM     15  C   UNL     1       0.636  -1.831  -5.817  0.00  0.00    +0.000 A 
ATOM     16  C   UNL     1      -0.488  -2.672  -5.940  0.00  0.00    +0.000 A 
ENDBRANCH   9  11
ENDBRANCH   4   9
BRANCH   5  17
ATOM     17  O   UNL     1      -2.914  -4.572  -7.525  0.00  0.00    +0.000 OA
ATOM     18  H   UNL     1      -3.570  -3.886  -7.243  0.00  0.00    +0.000 HD
ENDBRANCH   5  17
TORSDOF 4
ENDMDL
MODEL 7
REMARK VINA RESULT:      -4.5      3.959      6.253
REMARK  Name = bgox31_4_ligand
REMARK  5 active torsions:
REMARK  status: ('A' for Active; 'I' for Inactive)
REMARK    1  A    between atoms: C_1  and  O_2
REMARK    2  A    between atoms: O_2  and  C_3
REMARK    3  A    between atoms: C_6  and  C_7
REMARK    4  A    between atoms: C_7  and  C_9
REMARK    5  A    between atoms: C_15  and  O_16
REMARK                            x       y       z     vdW  Elec       q    Type
REMARK                         _______ _______ _______ _____ _____    ______ ____
ROOT
ATOM      1  C   UNL     1      -3.357  -0.125  -9.302  0.00  0.00    +0.000 A 
ATOM      2  C   UNL     1      -3.664  -0.356  -7.989  0.00  0.00    +0.000 A 
ATOM      3  C   UNL     1      -2.941  -1.338  -7.219  0.00  0.00    +0.000 A 
ATOM      4  C   UNL     1      -1.960  -2.077  -7.895  0.00  0.00    +0.000 A 
ATOM      5  C   UNL     1      -1.654  -1.808  -9.223  0.00  0.00    +0.000 A 
ATOM      6  C   UNL     1      -2.352  -0.834  -9.963  0.00  0.00    +0.000 A 
ENDROOT
BRANCH   1   8
ATOM      7  C   UNL     1      -3.302   2.043 -10.302  0.00  0.00    +0.000 C 
ATOM      8  O   UNL     1      -4.055   0.843  -9.981  0.00  0.00    +0.000 OA
ENDBRANCH   1   8
BRANCH   4   9
ATOM      9  C   UNL     1      -1.252  -3.101  -7.107  0.00  0.00    +0.000 C 
ATOM     10  O   UNL     1      -1.162  -4.260  -7.632  0.00  0.00    +0.000 OA
BRANCH   9  11
ATOM     11  C   UNL     1      -0.456  -2.822  -5.909  0.00  0.00    +0.000 A 
ATOM     12  C   UNL     1      -0.891  -3.405  -4.712  0.00  0.00    +0.000 A 
ATOM     13  C   UNL     1      -0.210  -3.094  -3.514  0.00  0.00    +0.000 A 
ATOM     14  C   UNL     1       0.783  -2.167  -3.525  0.00  0.00    +0.000 A 
ATOM     15  C   UNL     1       1.187  -1.531  -4.686  0.00  0.00    +0.000 A 
ATOM     16  C   UNL     1       0.547  -1.831  -5.905  0.00  0.00    +0.000 A 
ENDBRANCH   9  11
ENDBRANCH   4   9
BRANCH   5  17
ATOM     17  O   UNL     1      -0.642  -2.569  -9.832  0.00  0.00    +0.000 OA
ATOM     18  H   UNL     1       0.289  -2.512  -9.500  0.00  0.00    +0.000 HD
ENDBRANCH   5  17
TORSDOF 4
ENDMDL
MODEL 8
REMARK VINA RESULT:      -4.5      1.863      5.769
REMARK  Name = bgox31_4_ligand
REMARK  5 active torsions:
REMARK  status: ('A' for Active; 'I' for Inactive)
REMARK    1  A    between atoms: C_1  and  O_2
REMARK    2  A    between atoms: O_2  and  C_3
REMARK    3  A    between atoms: C_6  and  C_7
REMARK    4  A    between atoms: C_7  and  C_9
REMARK    5  A    between atoms: C_15  and  O_16
REMARK                            x       y       z     vdW  Elec       q    Type
REMARK                         _______ _______ _______ _____ _____    ______ ____
ROOT
ATOM      1  C   UNL     1      -2.287  -8.316  -6.157  0.00  0.00    +0.000 A 
ATOM      2  C   UNL     1      -2.029  -7.908  -4.877  0.00  0.00    +0.000 A 
ATOM      3  C   UNL     1      -2.130  -6.518  -4.507  0.00  0.00    +0.000 A 
ATOM      4  C   UNL     1      -2.443  -5.610  -5.529  0.00  0.00    +0.000 A 
ATOM      5  C   UNL     1      -2.720  -6.054  -6.815  0.00  0.00    +0.000 A 
ATOM      6  C   UNL     1      -2.637  -7.416  -7.165  0.00  0.00    +0.000 A 
ENDROOT
BRANCH   1   8
ATOM      7  C   UNL     1      -1.428 -10.450  -5.517  0.00  0.00    +0.000 C 
ATOM      8  O   UNL     1      -2.207  -9.655  -6.450  0.00  0.00    +0.000 OA
ENDBRANCH   1   8
BRANCH   4   9
ATOM      9  C   UNL     1      -2.509  -4.189  -5.146  0.00  0.00    +0.000 C 
ATOM     10  O   UNL     1      -3.655  -3.745  -4.805  0.00  0.00    +0.000 OA
BRANCH   9  11
ATOM     11  C   UNL     1      -1.339  -3.341  -4.901  0.00  0.00    +0.000 A 
ATOM     12  C   UNL     1      -0.746  -2.745  -6.022  0.00  0.00    +0.000 A 
ATOM     13  C   UNL     1       0.437  -1.993  -5.849  0.00  0.00    +0.000 A 
ATOM     14  C   UNL     1       1.030  -1.941  -4.628  0.00  0.00    +0.000 A 
ATOM     15  C   UNL     1       0.495  -2.574  -3.519  0.00  0.00    +0.000 A 
ATOM     16  C   UNL     1      -0.696  -3.317  -3.648  0.00  0.00    +0.000 A 
ENDBRANCH   9  11
ENDBRANCH   4   9
BRANCH   5  17
ATOM     17  O   UNL     1      -3.051  -5.093  -7.786  0.00  0.00    +0.000 OA
ATOM     18  H   UNL     1      -3.991  -4.988  -8.079  0.00  0.00    +0.000 HD
ENDBRANCH   5  17
TORSDOF 4
ENDMDL
MODEL 9
REMARK VINA RESULT:      -4.5      4.152      6.476
REMARK  Name = bgox31_4_ligand
REMARK  5 active torsions:
REMARK  status: ('A' for Active; 'I' for Inactive)
REMARK    1  A    between atoms: C_1  and  O_2
REMARK    2  A    between atoms: O_2  and  C_3
REMARK    3  A    between atoms: C_6  and  C_7
REMARK    4  A    between atoms: C_7  and  C_9
REMARK    5  A    between atoms: C_15  and  O_16
REMARK                            x       y       z     vdW  Elec       q    Type
REMARK                         _______ _______ _______ _____ _____    ______ ____
ROOT
ATOM      1  C   UNL     1      -0.510  -4.459 -10.812  0.00  0.00    +0.000 A 
ATOM      2  C   UNL     1      -0.367  -5.083  -9.603  0.00  0.00    +0.000 A 
ATOM      3  C   UNL     1      -0.674  -4.396  -8.373  0.00  0.00    +0.000 A 
ATOM      4  C   UNL     1      -1.063  -3.054  -8.476  0.00  0.00    +0.000 A 
ATOM      5  C   UNL     1      -1.220  -2.451  -9.717  0.00  0.00    +0.000 A 
ATOM      6  C   UNL     1      -0.936  -3.133 -10.915  0.00  0.00    +0.000 A 
ENDROOT
BRANCH   1   8
ATOM      7  C   UNL     1       0.825  -6.154 -11.836  0.00  0.00    +0.000 C 
ATOM      8  O   UNL     1      -0.235  -5.168 -11.955  0.00  0.00    +0.000 OA
ENDBRANCH   1   8
BRANCH   4   9
ATOM      9  C   UNL     1      -1.340  -2.353  -7.210  0.00  0.00    +0.000 C 
ATOM     10  O   UNL     1      -2.506  -1.850  -7.081  0.00  0.00    +0.000 OA
BRANCH   9  11
ATOM     11  C   UNL     1      -0.477  -2.406  -6.027  0.00  0.00    +0.000 A 
ATOM     12  C   UNL     1      -0.953  -3.137  -4.931  0.00  0.00    +0.000 A 
ATOM     13  C   UNL     1      -0.201  -3.144  -3.735  0.00  0.00    +0.000 A 
ATOM     14  C   UNL     1       0.911  -2.370  -3.635  0.00  0.00    +0.000 A 
ATOM     15  C   UNL     1       1.365  -1.590  -4.685  0.00  0.00    +0.000 A 
ATOM     16  C   UNL     1       0.653  -1.574  -5.901  0.00  0.00    +0.000 A 
ENDBRANCH   9  11
ENDBRANCH   4   9
BRANCH   5  17
ATOM     17  O   UNL     1      -1.637  -1.109  -9.748  0.00  0.00    +0.000 OA
ATOM     18  H   UNL     1      -2.603  -0.890  -9.764  0.00  0.00    +0.000 HD
ENDBRANCH   5  17
TORSDOF 4
ENDMDL
