REMARK  Name = bgox31_2_ligand
REMARK  5 active torsions:
REMARK  status: ('A' for Active; 'I' for Inactive)
REMARK    1  A    between atoms: C_1  and  O_2
REMARK    2  A    between atoms: O_2  and  C_3
REMARK    3  A    between atoms: C_6  and  C_7
REMARK    4  A    between atoms: C_7  and  C_9
REMARK    5  A    between atoms: C_15  and  O_16
REMARK                            x       y       z     vdW  Elec       q    Type
REMARK                         _______ _______ _______ _____ _____    ______ ____
ROOT
ATOM      1  C   UNL     1       0.725  -0.211  -8.176  0.00  0.00    +0.000 A 
ATOM      2  C   UNL     1       0.607  -1.549  -8.565  0.00  0.00    +0.000 A 
ATOM      3  C   UNL     1      -0.468  -1.958  -9.313  0.00  0.00    +0.000 A 
ATOM      4  C   UNL     1      -1.405  -1.028  -9.669  0.00  0.00    +0.000 A 
ATOM      5  C   UNL     1      -1.274   0.308  -9.329  0.00  0.00    +0.000 A 
ATOM      6  C   UNL     1      -0.200   0.702  -8.590  0.00  0.00    +0.000 A 
ENDROOT
BRANCH   1   8
ATOM      7  C   UNL     1       1.626   1.334  -6.669  0.00  0.00    +0.000 C 
ATOM      8  O   UNL     1       1.762   0.146  -7.410  0.00  0.00    +0.000 OA
ENDBRANCH   1   8
BRANCH   4   9
ATOM      9  C   UNL     1      -2.591  -1.503 -10.460  0.00  0.00    +0.000 C 
ATOM     10  O   UNL     1      -3.050  -0.761 -11.283  0.00  0.00    +0.000 OA
BRANCH   9  11
ATOM     11  C   UNL     1      -3.101  -2.838 -10.343  0.00  0.00    +0.000 A 
ATOM     12  C   UNL     1      -3.787  -3.339 -11.425  0.00  0.00    +0.000 A 
ATOM     13  C   UNL     1      -4.346  -4.593 -11.324  0.00  0.00    +0.000 A 
ATOM     14  C   UNL     1      -4.188  -5.305 -10.159  0.00  0.00    +0.000 A 
ATOM     15  C   UNL     1      -3.548  -4.815  -9.125  0.00  0.00    +0.000 A 
ATOM     16  C   UNL     1      -2.978  -3.563  -9.225  0.00  0.00    +0.000 A 
ENDBRANCH   9  11
ENDBRANCH   4   9
BRANCH   5  17
ATOM     17  O   UNL     1      -2.198   1.174  -9.770  0.00  0.00    +0.000 OA
ATOM     18  H   UNL     1      -2.126   2.135  -9.540  0.00  0.00    +0.000 HD
ENDBRANCH   5  17
TORSDOF 4
