MODEL 1
REMARK VINA RESULT:      -4.1      0.000      0.000
REMARK  Name = bgox31_2_ligand
REMARK  5 active torsions:
REMARK  status: ('A' for Active; 'I' for Inactive)
REMARK    1  A    between atoms: C_1  and  O_2
REMARK    2  A    between atoms: O_2  and  C_3
REMARK    3  A    between atoms: C_6  and  C_7
REMARK    4  A    between atoms: C_7  and  C_9
REMARK    5  A    between atoms: C_15  and  O_16
REMARK                            x       y       z     vdW  Elec       q    Type
REMARK                         _______ _______ _______ _____ _____    ______ ____
ROOT
ATOM      1  C   UNL     1      -1.862   4.831  -4.895  0.00  0.00    +0.000 A 
ATOM      2  C   UNL     1      -1.048   4.601  -6.008  0.00  0.00    +0.000 A 
ATOM      3  C   UNL     1      -0.114   5.533  -6.384  0.00  0.00    +0.000 A 
ATOM      4  C   UNL     1       0.001   6.676  -5.642  0.00  0.00    +0.000 A 
ATOM      5  C   UNL     1      -0.767   6.893  -4.511  0.00  0.00    +0.000 A 
ATOM      6  C   UNL     1      -1.688   5.958  -4.146  0.00  0.00    +0.000 A 
ENDROOT
BRANCH   1   8
ATOM      7  C   UNL     1      -3.656   4.239  -3.516  0.00  0.00    +0.000 C 
ATOM      8  O   UNL     1      -2.793   3.923  -4.581  0.00  0.00    +0.000 OA
ENDBRANCH   1   8
BRANCH   4   9
ATOM      9  C   UNL     1       1.008   7.698  -6.091  0.00  0.00    +0.000 C 
ATOM     10  O   UNL     1       0.596   8.746  -6.505  0.00  0.00    +0.000 OA
BRANCH   9  11
ATOM     11  C   UNL     1       2.419   7.503  -5.925  0.00  0.00    +0.000 A 
ATOM     12  C   UNL     1       3.004   8.092  -4.829  0.00  0.00    +0.000 A 
ATOM     13  C   UNL     1       4.367   7.979  -4.673  0.00  0.00    +0.000 A 
ATOM     14  C   UNL     1       5.092   7.274  -5.604  0.00  0.00    +0.000 A 
ATOM     15  C   UNL     1       4.531   6.730  -6.657  0.00  0.00    +0.000 A 
ATOM     16  C   UNL     1       3.164   6.832  -6.812  0.00  0.00    +0.000 A 
ENDBRANCH   9  11
ENDBRANCH   4   9
BRANCH   5  17
ATOM     17  O   UNL     1      -0.552   8.006  -3.795  0.00  0.00    +0.000 OA
ATOM     18  H   UNL     1       0.373   8.277  -3.566  0.00  0.00    +0.000 HD
ENDBRANCH   5  17
TORSDOF 4
ENDMDL
MODEL 2
REMARK VINA RESULT:      -4.0      3.896      6.268
REMARK  Name = bgox31_2_ligand
REMARK  5 active torsions:
REMARK  status: ('A' for Active; 'I' for Inactive)
REMARK    1  A    between atoms: C_1  and  O_2
REMARK    2  A    between atoms: O_2  and  C_3
REMARK    3  A    between atoms: C_6  and  C_7
REMARK    4  A    between atoms: C_7  and  C_9
REMARK    5  A    between atoms: C_15  and  O_16
REMARK                            x       y       z     vdW  Elec       q    Type
REMARK                         _______ _______ _______ _____ _____    ______ ____
ROOT
ATOM      1  C   UNL     1      -6.097   5.249  -0.875  0.00  0.00    +0.000 A 
ATOM      2  C   UNL     1      -6.273   5.760  -2.165  0.00  0.00    +0.000 A 
ATOM      3  C   UNL     1      -5.541   5.260  -3.212  0.00  0.00    +0.000 A 
ATOM      4  C   UNL     1      -4.650   4.254  -2.961  0.00  0.00    +0.000 A 
ATOM      5  C   UNL     1      -4.501   3.708  -1.697  0.00  0.00    +0.000 A 
ATOM      6  C   UNL     1      -5.237   4.210  -0.667  0.00  0.00    +0.000 A 
ENDROOT
BRANCH   1   8
ATOM      7  C   UNL     1      -7.007   7.178   0.083  0.00  0.00    +0.000 C 
ATOM      8  O   UNL     1      -6.794   5.788   0.131  0.00  0.00    +0.000 OA
ENDBRANCH   1   8
BRANCH   4   9
ATOM      9  C   UNL     1      -3.835   3.743  -4.116  0.00  0.00    +0.000 C 
ATOM     10  O   UNL     1      -4.202   2.739  -4.661  0.00  0.00    +0.000 OA
BRANCH   9  11
ATOM     11  C   UNL     1      -2.723   4.475  -4.647  0.00  0.00    +0.000 A 
ATOM     12  C   UNL     1      -2.051   3.906  -5.704  0.00  0.00    +0.000 A 
ATOM     13  C   UNL     1      -0.939   4.550  -6.198  0.00  0.00    +0.000 A 
ATOM     14  C   UNL     1      -0.548   5.740  -5.633  0.00  0.00    +0.000 A 
ATOM     15  C   UNL     1      -1.182   6.269  -4.615  0.00  0.00    +0.000 A 
ATOM     16  C   UNL     1      -2.303   5.632  -4.123  0.00  0.00    +0.000 A 
ENDBRANCH   9  11
ENDBRANCH   4   9
BRANCH   5  17
ATOM     17  O   UNL     1      -3.656   2.678  -1.540  0.00  0.00    +0.000 OA
ATOM     18  H   UNL     1      -2.782   2.679  -2.007  0.00  0.00    +0.000 HD
ENDBRANCH   5  17
TORSDOF 4
ENDMDL
MODEL 3
REMARK VINA RESULT:      -3.9     10.837     15.031
REMARK  Name = bgox31_2_ligand
REMARK  5 active torsions:
REMARK  status: ('A' for Active; 'I' for Inactive)
REMARK    1  A    between atoms: C_1  and  O_2
REMARK    2  A    between atoms: O_2  and  C_3
REMARK    3  A    between atoms: C_6  and  C_7
REMARK    4  A    between atoms: C_7  and  C_9
REMARK    5  A    between atoms: C_15  and  O_16
REMARK                            x       y       z     vdW  Elec       q    Type
REMARK                         _______ _______ _______ _____ _____    ______ ____
ROOT
ATOM      1  C   UNL     1      -4.885  -3.679  -6.787  0.00  0.00    +0.000 A 
ATOM      2  C   UNL     1      -4.960  -5.040  -7.102  0.00  0.00    +0.000 A 
ATOM      3  C   UNL     1      -5.843  -5.854  -6.438  0.00  0.00    +0.000 A 
ATOM      4  C   UNL     1      -6.642  -5.301  -5.477  0.00  0.00    +0.000 A 
ATOM      5  C   UNL     1      -6.609  -3.946  -5.190  0.00  0.00    +0.000 A 
ATOM      6  C   UNL     1      -5.731  -3.148  -5.859  0.00  0.00    +0.000 A 
ENDROOT
BRANCH   1   8
ATOM      7  C   UNL     1      -3.907  -1.570  -7.041  0.00  0.00    +0.000 C 
ATOM      8  O   UNL     1      -3.982  -2.922  -7.422  0.00  0.00    +0.000 OA
ENDBRANCH   1   8
BRANCH   4   9
ATOM      9  C   UNL     1      -7.578  -6.216  -4.740  0.00  0.00    +0.000 C 
ATOM     10  O   UNL     1      -8.757  -6.038  -4.873  0.00  0.00    +0.000 OA
BRANCH   9  11
ATOM     11  C   UNL     1      -7.110  -7.347  -3.993  0.00  0.00    +0.000 A 
ATOM     12  C   UNL     1      -6.284  -7.088  -2.924  0.00  0.00    +0.000 A 
ATOM     13  C   UNL     1      -5.763  -8.153  -2.224  0.00  0.00    +0.000 A 
ATOM     14  C   UNL     1      -6.096  -9.431  -2.605  0.00  0.00    +0.000 A 
ATOM     15  C   UNL     1      -6.869  -9.672  -3.635  0.00  0.00    +0.000 A 
ATOM     16  C   UNL     1      -7.401  -8.608  -4.334  0.00  0.00    +0.000 A 
ENDBRANCH   9  11
ENDBRANCH   4   9
BRANCH   5  17
ATOM     17  O   UNL     1      -7.469  -3.463  -4.282  0.00  0.00    +0.000 OA
ATOM     18  H   UNL     1      -8.409  -3.777  -4.273  0.00  0.00    +0.000 HD
ENDBRANCH   5  17
TORSDOF 4
ENDMDL
MODEL 4
REMARK VINA RESULT:      -3.8     12.866     14.896
REMARK  Name = bgox31_2_ligand
REMARK  5 active torsions:
REMARK  status: ('A' for Active; 'I' for Inactive)
REMARK    1  A    between atoms: C_1  and  O_2
REMARK    2  A    between atoms: O_2  and  C_3
REMARK    3  A    between atoms: C_6  and  C_7
REMARK    4  A    between atoms: C_7  and  C_9
REMARK    5  A    between atoms: C_15  and  O_16
REMARK                            x       y       z     vdW  Elec       q    Type
REMARK                         _______ _______ _______ _____ _____    ______ ____
ROOT
ATOM      1  C   UNL     1      -3.722  -5.435 -10.026  0.00  0.00    +0.000 A 
ATOM      2  C   UNL     1      -2.665  -5.023 -10.844  0.00  0.00    +0.000 A 
ATOM      3  C   UNL     1      -1.681  -5.911 -11.199  0.00  0.00    +0.000 A 
ATOM      4  C   UNL     1      -1.768  -7.197 -10.740  0.00  0.00    +0.000 A 
ATOM      5  C   UNL     1      -2.835  -7.626  -9.969  0.00  0.00    +0.000 A 
ATOM      6  C   UNL     1      -3.807  -6.736  -9.627  0.00  0.00    +0.000 A 
ENDROOT
BRANCH   1   8
ATOM      7  C   UNL     1      -4.666  -4.161  -8.306  0.00  0.00    +0.000 C 
ATOM      8  O   UNL     1      -4.642  -4.533  -9.663  0.00  0.00    +0.000 OA
ENDBRANCH   1   8
BRANCH   4   9
ATOM      9  C   UNL     1      -0.663  -8.144 -11.113  0.00  0.00    +0.000 C 
ATOM     10  O   UNL     1      -0.928  -9.051 -11.852  0.00  0.00    +0.000 OA
BRANCH   9  11
ATOM     11  C   UNL     1       0.696  -7.926 -10.714  0.00  0.00    +0.000 A 
ATOM     12  C   UNL     1       1.644  -7.920 -11.710  0.00  0.00    +0.000 A 
ATOM     13  C   UNL     1       2.967  -7.777 -11.357  0.00  0.00    +0.000 A 
ATOM     14  C   UNL     1       3.294  -7.630 -10.030  0.00  0.00    +0.000 A 
ATOM     15  C   UNL     1       2.387  -7.654  -9.083  0.00  0.00    +0.000 A 
ATOM     16  C   UNL     1       1.060  -7.787  -9.433  0.00  0.00    +0.000 A 
ENDBRANCH   9  11
ENDBRANCH   4   9
BRANCH   5  17
ATOM     17  O   UNL     1      -2.887  -8.918  -9.612  0.00  0.00    +0.000 OA
ATOM     18  H   UNL     1      -3.257  -9.173  -8.729  0.00  0.00    +0.000 HD
ENDBRANCH   5  17
TORSDOF 4
ENDMDL
MODEL 5
REMARK VINA RESULT:      -3.8      7.551     10.001
REMARK  Name = bgox31_2_ligand
REMARK  5 active torsions:
REMARK  status: ('A' for Active; 'I' for Inactive)
REMARK    1  A    between atoms: C_1  and  O_2
REMARK    2  A    between atoms: O_2  and  C_3
REMARK    3  A    between atoms: C_6  and  C_7
REMARK    4  A    between atoms: C_7  and  C_9
REMARK    5  A    between atoms: C_15  and  O_16
REMARK                            x       y       z     vdW  Elec       q    Type
REMARK                         _______ _______ _______ _____ _____    ______ ____
ROOT
ATOM      1  C   UNL     1      -5.144  -4.750  -6.852  0.00  0.00    +0.000 A 
ATOM      2  C   UNL     1      -4.686  -4.514  -8.152  0.00  0.00    +0.000 A 
ATOM      3  C   UNL     1      -4.238  -3.268  -8.510  0.00  0.00    +0.000 A 
ATOM      4  C   UNL     1      -4.243  -2.278  -7.567  0.00  0.00    +0.000 A 
ATOM      5  C   UNL     1      -4.650  -2.513  -6.264  0.00  0.00    +0.000 A 
ATOM      6  C   UNL     1      -5.089  -3.755  -5.920  0.00  0.00    +0.000 A 
ENDROOT
BRANCH   1   8
ATOM      7  C   UNL     1      -6.345  -6.081  -5.351  0.00  0.00    +0.000 C 
ATOM      8  O   UNL     1      -5.616  -5.964  -6.548  0.00  0.00    +0.000 OA
ENDBRANCH   1   8
BRANCH   4   9
ATOM      9  C   UNL     1      -3.779  -0.913  -7.989  0.00  0.00    +0.000 C 
ATOM     10  O   UNL     1      -4.610  -0.066  -8.163  0.00  0.00    +0.000 OA
BRANCH   9  11
ATOM     11  C   UNL     1      -2.388  -0.571  -8.070  0.00  0.00    +0.000 A 
ATOM     12  C   UNL     1      -2.086   0.742  -8.347  0.00  0.00    +0.000 A 
ATOM     13  C   UNL     1      -0.763   1.093  -8.495  0.00  0.00    +0.000 A 
ATOM     14  C   UNL     1       0.206   0.130  -8.347  0.00  0.00    +0.000 A 
ATOM     15  C   UNL     1      -0.089  -1.124  -8.101  0.00  0.00    +0.000 A 
ATOM     16  C   UNL     1      -1.413  -1.478  -7.942  0.00  0.00    +0.000 A 
ENDBRANCH   9  11
ENDBRANCH   4   9
BRANCH   5  17
ATOM     17  O   UNL     1      -4.565  -1.511  -5.377  0.00  0.00    +0.000 OA
ATOM     18  H   UNL     1      -3.686  -1.262  -4.993  0.00  0.00    +0.000 HD
ENDBRANCH   5  17
TORSDOF 4
ENDMDL
MODEL 6
REMARK VINA RESULT:      -3.7      1.992      7.089
REMARK  Name = bgox31_2_ligand
REMARK  5 active torsions:
REMARK  status: ('A' for Active; 'I' for Inactive)
REMARK    1  A    between atoms: C_1  and  O_2
REMARK    2  A    between atoms: O_2  and  C_3
REMARK    3  A    between atoms: C_6  and  C_7
REMARK    4  A    between atoms: C_7  and  C_9
REMARK    5  A    between atoms: C_15  and  O_16
REMARK                            x       y       z     vdW  Elec       q    Type
REMARK                         _______ _______ _______ _____ _____    ______ ____
ROOT
ATOM      1  C   UNL     1      -0.686   7.551  -5.050  0.00  0.00    +0.000 A 
ATOM      2  C   UNL     1      -1.960   8.102  -4.876  0.00  0.00    +0.000 A 
ATOM      3  C   UNL     1      -3.045   7.285  -4.685  0.00  0.00    +0.000 A 
ATOM      4  C   UNL     1      -2.846   5.932  -4.662  0.00  0.00    +0.000 A 
ATOM      5  C   UNL     1      -1.583   5.378  -4.786  0.00  0.00    +0.000 A 
ATOM      6  C   UNL     1      -0.513   6.200  -4.971  0.00  0.00    +0.000 A 
ENDROOT
BRANCH   1   8
ATOM      7  C   UNL     1       1.277   7.969  -6.251  0.00  0.00    +0.000 C 
ATOM      8  O   UNL     1       0.344   8.373  -5.279  0.00  0.00    +0.000 OA
ENDBRANCH   1   8
BRANCH   4   9
ATOM      9  C   UNL     1      -4.052   5.054  -4.484  0.00  0.00    +0.000 C 
ATOM     10  O   UNL     1      -4.502   4.516  -5.457  0.00  0.00    +0.000 OA
BRANCH   9  11
ATOM     11  C   UNL     1      -4.593   4.754  -3.190  0.00  0.00    +0.000 A 
ATOM     12  C   UNL     1      -5.620   5.554  -2.745  0.00  0.00    +0.000 A 
ATOM     13  C   UNL     1      -6.120   5.335  -1.481  0.00  0.00    +0.000 A 
ATOM     14  C   UNL     1      -5.592   4.322  -0.717  0.00  0.00    +0.000 A 
ATOM     15  C   UNL     1      -4.602   3.574  -1.141  0.00  0.00    +0.000 A 
ATOM     16  C   UNL     1      -4.104   3.783  -2.410  0.00  0.00    +0.000 A 
ENDBRANCH   9  11
ENDBRANCH   4   9
BRANCH   5  17
ATOM     17  O   UNL     1      -1.456   4.047  -4.687  0.00  0.00    +0.000 OA
ATOM     18  H   UNL     1      -2.212   3.501  -4.352  0.00  0.00    +0.000 HD
ENDBRANCH   5  17
TORSDOF 4
ENDMDL
MODEL 7
REMARK VINA RESULT:      -3.7     12.617     15.442
REMARK  Name = bgox31_2_ligand
REMARK  5 active torsions:
REMARK  status: ('A' for Active; 'I' for Inactive)
REMARK    1  A    between atoms: C_1  and  O_2
REMARK    2  A    between atoms: O_2  and  C_3
REMARK    3  A    between atoms: C_6  and  C_7
REMARK    4  A    between atoms: C_7  and  C_9
REMARK    5  A    between atoms: C_15  and  O_16
REMARK                            x       y       z     vdW  Elec       q    Type
REMARK                         _______ _______ _______ _____ _____    ______ ____
ROOT
ATOM      1  C   UNL     1      -4.032  -9.618 -10.403  0.00  0.00    +0.000 A 
ATOM      2  C   UNL     1      -3.018  -8.707 -10.093  0.00  0.00    +0.000 A 
ATOM      3  C   UNL     1      -3.311  -7.377  -9.930  0.00  0.00    +0.000 A 
ATOM      4  C   UNL     1      -4.610  -6.975 -10.070  0.00  0.00    +0.000 A 
ATOM      5  C   UNL     1      -5.629  -7.875 -10.331  0.00  0.00    +0.000 A 
ATOM      6  C   UNL     1      -5.326  -9.194 -10.486  0.00  0.00    +0.000 A 
ENDROOT
BRANCH   1   8
ATOM      7  C   UNL     1      -3.898 -11.415 -11.895  0.00  0.00    +0.000 C 
ATOM      8  O   UNL     1      -3.706 -10.901 -10.600  0.00  0.00    +0.000 OA
ENDBRANCH   1   8
BRANCH   4   9
ATOM      9  C   UNL     1      -4.905  -5.509  -9.920  0.00  0.00    +0.000 C 
ATOM     10  O   UNL     1      -5.365  -4.930 -10.864  0.00  0.00    +0.000 OA
BRANCH   9  11
ATOM     11  C   UNL     1      -4.766  -4.828  -8.666  0.00  0.00    +0.000 A 
ATOM     12  C   UNL     1      -5.333  -5.428  -7.566  0.00  0.00    +0.000 A 
ATOM     13  C   UNL     1      -5.276  -4.771  -6.357  0.00  0.00    +0.000 A 
ATOM     14  C   UNL     1      -4.644  -3.553  -6.286  0.00  0.00    +0.000 A 
ATOM     15  C   UNL     1      -4.121  -2.978  -7.342  0.00  0.00    +0.000 A 
ATOM     16  C   UNL     1      -4.168  -3.636  -8.553  0.00  0.00    +0.000 A 
ENDBRANCH   9  11
ENDBRANCH   4   9
BRANCH   5  17
ATOM     17  O   UNL     1      -6.888  -7.417 -10.389  0.00  0.00    +0.000 OA
ATOM     18  H   UNL     1      -7.136  -6.731 -11.059  0.00  0.00    +0.000 HD
ENDBRANCH   5  17
TORSDOF 4
ENDMDL
MODEL 8
REMARK VINA RESULT:      -3.7      4.041      6.075
REMARK  Name = bgox31_2_ligand
REMARK  5 active torsions:
REMARK  status: ('A' for Active; 'I' for Inactive)
REMARK    1  A    between atoms: C_1  and  O_2
REMARK    2  A    between atoms: O_2  and  C_3
REMARK    3  A    between atoms: C_6  and  C_7
REMARK    4  A    between atoms: C_7  and  C_9
REMARK    5  A    between atoms: C_15  and  O_16
REMARK                            x       y       z     vdW  Elec       q    Type
REMARK                         _______ _______ _______ _____ _____    ______ ____
ROOT
ATOM      1  C   UNL     1       0.056  -0.386  -7.787  0.00  0.00    +0.000 A 
ATOM      2  C   UNL     1       1.040   0.433  -7.224  0.00  0.00    +0.000 A 
ATOM      3  C   UNL     1       0.898   1.798  -7.248  0.00  0.00    +0.000 A 
ATOM      4  C   UNL     1      -0.223   2.326  -7.826  0.00  0.00    +0.000 A 
ATOM      5  C   UNL     1      -1.225   1.523  -8.345  0.00  0.00    +0.000 A 
ATOM      6  C   UNL     1      -1.074   0.170  -8.310  0.00  0.00    +0.000 A 
ENDROOT
BRANCH   1   8
ATOM      7  C   UNL     1       1.324  -2.199  -8.545  0.00  0.00    +0.000 C 
ATOM      8  O   UNL     1       0.246  -1.710  -7.786  0.00  0.00    +0.000 OA
ENDBRANCH   1   8
BRANCH   4   9
ATOM      9  C   UNL     1      -0.342   3.823  -7.872  0.00  0.00    +0.000 C 
ATOM     10  O   UNL     1      -0.353   4.352  -8.948  0.00  0.00    +0.000 OA
BRANCH   9  11
ATOM     11  C   UNL     1      -0.561   4.607  -6.691  0.00  0.00    +0.000 A 
ATOM     12  C   UNL     1      -1.539   4.172  -5.828  0.00  0.00    +0.000 A 
ATOM     13  C   UNL     1      -1.821   4.935  -4.717  0.00  0.00    +0.000 A 
ATOM     14  C   UNL     1      -1.110   6.091  -4.500  0.00  0.00    +0.000 A 
ATOM     15  C   UNL     1      -0.191   6.510  -5.337  0.00  0.00    +0.000 A 
ATOM     16  C   UNL     1       0.101   5.744  -6.446  0.00  0.00    +0.000 A 
ENDBRANCH   9  11
ENDBRANCH   4   9
BRANCH   5  17
ATOM     17  O   UNL     1      -2.326   2.110  -8.835  0.00  0.00    +0.000 OA
ATOM     18  H   UNL     1      -3.078   2.335  -8.231  0.00  0.00    +0.000 HD
ENDBRANCH   5  17
TORSDOF 4
ENDMDL
MODEL 9
REMARK VINA RESULT:      -3.7     13.809     15.761
REMARK  Name = bgox31_2_ligand
REMARK  5 active torsions:
REMARK  status: ('A' for Active; 'I' for Inactive)
REMARK    1  A    between atoms: C_1  and  O_2
REMARK    2  A    between atoms: O_2  and  C_3
REMARK    3  A    between atoms: C_6  and  C_7
REMARK    4  A    between atoms: C_7  and  C_9
REMARK    5  A    between atoms: C_15  and  O_16
REMARK                            x       y       z     vdW  Elec       q    Type
REMARK                         _______ _______ _______ _____ _____    ______ ____
ROOT
ATOM      1  C   UNL     1      -3.564  -9.664 -10.699  0.00  0.00    +0.000 A 
ATOM      2  C   UNL     1      -3.493  -8.448 -10.011  0.00  0.00    +0.000 A 
ATOM      3  C   UNL     1      -2.451  -7.585 -10.241  0.00  0.00    +0.000 A 
ATOM      4  C   UNL     1      -1.501  -7.941 -11.157  0.00  0.00    +0.000 A 
ATOM      5  C   UNL     1      -1.586  -9.120 -11.878  0.00  0.00    +0.000 A 
ATOM      6  C   UNL     1      -2.627  -9.967 -11.643  0.00  0.00    +0.000 A 
ENDROOT
BRANCH   1   8
ATOM      7  C   UNL     1      -5.449 -10.812 -11.471  0.00  0.00    +0.000 C 
ATOM      8  O   UNL     1      -4.568 -10.502 -10.419  0.00  0.00    +0.000 OA
ENDBRANCH   1   8
BRANCH   4   9
ATOM      9  C   UNL     1      -0.352  -6.996 -11.369  0.00  0.00    +0.000 C 
ATOM     10  O   UNL     1      -0.360  -6.316 -12.357  0.00  0.00    +0.000 OA
BRANCH   9  11
ATOM     11  C   UNL     1       0.671  -6.805 -10.383  0.00  0.00    +0.000 A 
ATOM     12  C   UNL     1       1.228  -5.550 -10.300  0.00  0.00    +0.000 A 
ATOM     13  C   UNL     1       2.257  -5.346  -9.408  0.00  0.00    +0.000 A 
ATOM     14  C   UNL     1       2.680  -6.393  -8.624  0.00  0.00    +0.000 A 
ATOM     15  C   UNL     1       2.157  -7.591  -8.720  0.00  0.00    +0.000 A 
ATOM     16  C   UNL     1       1.120  -7.797  -9.605  0.00  0.00    +0.000 A 
ENDBRANCH   9  11
ENDBRANCH   4   9
BRANCH   5  17
ATOM     17  O   UNL     1      -0.653  -9.371 -12.807  0.00  0.00    +0.000 OA
ATOM     18  H   UNL     1      -0.891  -9.342 -13.769  0.00  0.00    +0.000 HD
ENDBRANCH   5  17
TORSDOF 4
ENDMDL
