REMARK  Name = bg33_2_ligand
REMARK  12 active torsions:
REMARK  status: ('A' for Active; 'I' for Inactive)
REMARK    1  A    between atoms: C_1  and  C_2
REMARK    2  A    between atoms: C_2  and  C_3
REMARK    3  A    between atoms: C_3  and  C_4
REMARK    4  A    between atoms: C_4  and  C_5
REMARK    5  A    between atoms: C_5  and  C_6
REMARK    6  A    between atoms: C_5  and  O_8
REMARK    7  A    between atoms: C_6  and  C_7
REMARK    8  A    between atoms: O_8  and  C_9
REMARK    9  A    between atoms: C_9  and  C_11
REMARK   10  A    between atoms: C_12  and  C_13
REMARK   11  A    between atoms: C_16  and  O_17
REMARK   12  A    between atoms: O_17  and  C_18
REMARK                            x       y       z     vdW  Elec       q    Type
REMARK                         _______ _______ _______ _____ _____    ______ ____
ROOT
ATOM      1  C   UNL     1       7.599  -7.859  -0.409  0.00  0.00    +0.000 C 
ATOM      2  O   UNL     1       8.432  -8.664  -0.759  0.00  0.00    +0.000 OA
ENDROOT
BRANCH   1   3
ATOM      3  C   UNL     1       7.429  -6.592  -1.195  0.00  0.00    +0.000 C 
ATOM      4  C   UNL     1       6.372  -5.730  -1.053  0.00  0.00    +0.000 C 
BRANCH   4   5
ATOM      5  C   UNL     1       6.366  -4.410  -1.785  0.00  0.00    +0.000 A 
ATOM      6  C   UNL     1       7.522  -3.924  -2.361  0.00  0.00    +0.000 A 
ATOM      7  C   UNL     1       7.469  -2.690  -3.004  0.00  0.00    +0.000 A 
ATOM      8  C   UNL     1       6.310  -1.931  -3.089  0.00  0.00    +0.000 A 
ATOM      9  C   UNL     1       5.182  -2.433  -2.486  0.00  0.00    +0.000 A 
ATOM     10  C   UNL     1       5.197  -3.675  -1.836  0.00  0.00    +0.000 A 
BRANCH   8  11
ATOM     11  O   UNL     1       6.302  -0.687  -3.711  0.00  0.00    +0.000 OA
ATOM     12  C   UNL     1       6.872  -0.656  -5.027  0.00  0.00    +0.000 C 
ENDBRANCH   8  11
ENDBRANCH   4   5
ENDBRANCH   1   3
BRANCH   1  13
ATOM     13  O   UNL     1       6.851  -8.115   0.776  0.00  0.00    +0.000 OA
BRANCH  13  14
ATOM     14  C   UNL     1       7.160  -9.324   1.540  0.00  0.00    +0.000 C 
BRANCH  14  15
ATOM     15  C   UNL     1       6.058  -9.748   2.491  0.00  0.00    +0.000 C 
ATOM     16  C   UNL     1       6.163 -11.294   2.794  0.00  0.00    +0.000 C 
ENDBRANCH  14  15
BRANCH  14  17
ATOM     17  C   UNL     1       8.425  -9.150   2.329  0.00  0.00    +0.000 C 
BRANCH  17  18
ATOM     18  C   UNL     1       8.248  -8.103   3.442  0.00  0.00    +0.000 C 
BRANCH  18  20
ATOM     19  C   UNL     1       9.158  -7.027   5.502  0.00  0.00    +0.000 C 
ATOM     20  C   UNL     1       9.412  -8.070   4.399  0.00  0.00    +0.000 C 
ENDBRANCH  18  20
ENDBRANCH  17  18
ENDBRANCH  14  17
ENDBRANCH  13  14
ENDBRANCH   1  13
TORSDOF 9
