MODEL 1
REMARK VINA RESULT:      -2.9      0.000      0.000
REMARK  Name = bg33_2_ligand
REMARK  12 active torsions:
REMARK  status: ('A' for Active; 'I' for Inactive)
REMARK    1  A    between atoms: C_1  and  C_2
REMARK    2  A    between atoms: C_2  and  C_3
REMARK    3  A    between atoms: C_3  and  C_4
REMARK    4  A    between atoms: C_4  and  C_5
REMARK    5  A    between atoms: C_5  and  C_6
REMARK    6  A    between atoms: C_5  and  O_8
REMARK    7  A    between atoms: C_6  and  C_7
REMARK    8  A    between atoms: O_8  and  C_9
REMARK    9  A    between atoms: C_9  and  C_11
REMARK   10  A    between atoms: C_12  and  C_13
REMARK   11  A    between atoms: C_16  and  O_17
REMARK   12  A    between atoms: O_17  and  C_18
REMARK                            x       y       z     vdW  Elec       q    Type
REMARK                         _______ _______ _______ _____ _____    ______ ____
ROOT
ATOM      1  C   UNL     1      12.668  -4.503   3.881  0.00  0.00    +0.000 C 
ATOM      2  O   UNL     1      13.492  -5.389   3.868  0.00  0.00    +0.000 OA
ENDROOT
BRANCH   1   3
ATOM      3  C   UNL     1      11.223  -4.844   3.659  0.00  0.00    +0.000 C 
ATOM      4  C   UNL     1      10.268  -3.943   3.262  0.00  0.00    +0.000 C 
BRANCH   4   5
ATOM      5  C   UNL     1       8.874  -4.414   2.926  0.00  0.00    +0.000 A 
ATOM      6  C   UNL     1       8.215  -3.917   1.820  0.00  0.00    +0.000 A 
ATOM      7  C   UNL     1       6.921  -4.366   1.568  0.00  0.00    +0.000 A 
ATOM      8  C   UNL     1       6.269  -5.285   2.377  0.00  0.00    +0.000 A 
ATOM      9  C   UNL     1       6.944  -5.743   3.483  0.00  0.00    +0.000 A 
ATOM     10  C   UNL     1       8.251  -5.319   3.764  0.00  0.00    +0.000 A 
BRANCH   8  11
ATOM     11  O   UNL     1       4.964  -5.686   2.113  0.00  0.00    +0.000 OA
ATOM     12  C   UNL     1       4.004  -5.360   3.128  0.00  0.00    +0.000 C 
ENDBRANCH   8  11
ENDBRANCH   4   5
ENDBRANCH   1   3
BRANCH   1  13
ATOM     13  O   UNL     1      13.107  -3.158   4.044  0.00  0.00    +0.000 OA
BRANCH  13  14
ATOM     14  C   UNL     1      13.724  -2.489   2.898  0.00  0.00    +0.000 C 
BRANCH  14  15
ATOM     15  C   UNL     1      15.035  -1.801   3.221  0.00  0.00    +0.000 C 
ATOM     16  C   UNL     1      15.257  -1.755   4.784  0.00  0.00    +0.000 C 
ENDBRANCH  14  15
BRANCH  14  17
ATOM     17  C   UNL     1      12.791  -1.474   2.304  0.00  0.00    +0.000 C 
BRANCH  17  18
ATOM     18  C   UNL     1      12.580  -1.723   0.801  0.00  0.00    +0.000 C 
BRANCH  18  20
ATOM     19  C   UNL     1      11.320  -3.583  -0.287  0.00  0.00    +0.000 C 
ATOM     20  C   UNL     1      12.616  -3.187   0.444  0.00  0.00    +0.000 C 
ENDBRANCH  18  20
ENDBRANCH  17  18
ENDBRANCH  14  17
ENDBRANCH  13  14
ENDBRANCH   1  13
TORSDOF 9
ENDMDL
MODEL 2
REMARK VINA RESULT:      -2.9      6.801     10.128
REMARK  Name = bg33_2_ligand
REMARK  12 active torsions:
REMARK  status: ('A' for Active; 'I' for Inactive)
REMARK    1  A    between atoms: C_1  and  C_2
REMARK    2  A    between atoms: C_2  and  C_3
REMARK    3  A    between atoms: C_3  and  C_4
REMARK    4  A    between atoms: C_4  and  C_5
REMARK    5  A    between atoms: C_5  and  C_6
REMARK    6  A    between atoms: C_5  and  O_8
REMARK    7  A    between atoms: C_6  and  C_7
REMARK    8  A    between atoms: O_8  and  C_9
REMARK    9  A    between atoms: C_9  and  C_11
REMARK   10  A    between atoms: C_12  and  C_13
REMARK   11  A    between atoms: C_16  and  O_17
REMARK   12  A    between atoms: O_17  and  C_18
REMARK                            x       y       z     vdW  Elec       q    Type
REMARK                         _______ _______ _______ _____ _____    ______ ____
ROOT
ATOM      1  C   UNL     1       6.733  -1.056  -2.305  0.00  0.00    +0.000 C 
ATOM      2  O   UNL     1       7.382  -1.829  -2.973  0.00  0.00    +0.000 OA
ENDROOT
BRANCH   1   3
ATOM      3  C   UNL     1       7.444  -0.109  -1.384  0.00  0.00    +0.000 C 
ATOM      4  C   UNL     1       8.162   0.983  -1.802  0.00  0.00    +0.000 C 
BRANCH   4   5
ATOM      5  C   UNL     1       8.718   1.956  -0.791  0.00  0.00    +0.000 A 
ATOM      6  C   UNL     1      10.063   1.952  -0.482  0.00  0.00    +0.000 A 
ATOM      7  C   UNL     1      10.522   2.854   0.474  0.00  0.00    +0.000 A 
ATOM      8  C   UNL     1       9.689   3.752   1.128  0.00  0.00    +0.000 A 
ATOM      9  C   UNL     1       8.352   3.715   0.813  0.00  0.00    +0.000 A 
ATOM     10  C   UNL     1       7.856   2.825  -0.150  0.00  0.00    +0.000 A 
BRANCH   8  11
ATOM     11  O   UNL     1      10.177   4.616   2.102  0.00  0.00    +0.000 OA
ATOM     12  C   UNL     1      11.490   4.309   2.592  0.00  0.00    +0.000 C 
ENDBRANCH   8  11
ENDBRANCH   4   5
ENDBRANCH   1   3
BRANCH   1  13
ATOM     13  O   UNL     1       5.311  -1.117  -2.371  0.00  0.00    +0.000 OA
BRANCH  13  14
ATOM     14  C   UNL     1       4.623  -0.212  -3.292  0.00  0.00    +0.000 C 
BRANCH  14  15
ATOM     15  C   UNL     1       4.090   1.046  -2.634  0.00  0.00    +0.000 C 
ATOM     16  C   UNL     1       4.909   2.306  -3.118  0.00  0.00    +0.000 C 
ENDBRANCH  14  15
BRANCH  14  17
ATOM     17  C   UNL     1       3.483  -0.908  -3.975  0.00  0.00    +0.000 C 
BRANCH  17  18
ATOM     18  C   UNL     1       3.429  -2.397  -3.592  0.00  0.00    +0.000 C 
BRANCH  18  20
ATOM     19  C   UNL     1       2.035  -4.296  -2.767  0.00  0.00    +0.000 C 
ATOM     20  C   UNL     1       2.019  -2.902  -3.419  0.00  0.00    +0.000 C 
ENDBRANCH  18  20
ENDBRANCH  17  18
ENDBRANCH  14  17
ENDBRANCH  13  14
ENDBRANCH   1  13
TORSDOF 9
ENDMDL
MODEL 3
REMARK VINA RESULT:      -2.9      8.521     12.544
REMARK  Name = bg33_2_ligand
REMARK  12 active torsions:
REMARK  status: ('A' for Active; 'I' for Inactive)
REMARK    1  A    between atoms: C_1  and  C_2
REMARK    2  A    between atoms: C_2  and  C_3
REMARK    3  A    between atoms: C_3  and  C_4
REMARK    4  A    between atoms: C_4  and  C_5
REMARK    5  A    between atoms: C_5  and  C_6
REMARK    6  A    between atoms: C_5  and  O_8
REMARK    7  A    between atoms: C_6  and  C_7
REMARK    8  A    between atoms: O_8  and  C_9
REMARK    9  A    between atoms: C_9  and  C_11
REMARK   10  A    between atoms: C_12  and  C_13
REMARK   11  A    between atoms: C_16  and  O_17
REMARK   12  A    between atoms: O_17  and  C_18
REMARK                            x       y       z     vdW  Elec       q    Type
REMARK                         _______ _______ _______ _____ _____    ______ ____
ROOT
ATOM      1  C   UNL     1       0.821  -3.062  -4.265  0.00  0.00    +0.000 C 
ATOM      2  O   UNL     1      -0.012  -3.692  -3.654  0.00  0.00    +0.000 OA
ENDROOT
BRANCH   1   3
ATOM      3  C   UNL     1       1.988  -2.478  -3.523  0.00  0.00    +0.000 C 
ATOM      4  C   UNL     1       3.247  -2.341  -4.048  0.00  0.00    +0.000 C 
BRANCH   4   5
ATOM      5  C   UNL     1       4.316  -1.609  -3.273  0.00  0.00    +0.000 A 
ATOM      6  C   UNL     1       5.473  -2.259  -2.893  0.00  0.00    +0.000 A 
ATOM      7  C   UNL     1       6.417  -1.546  -2.158  0.00  0.00    +0.000 A 
ATOM      8  C   UNL     1       6.246  -0.218  -1.793  0.00  0.00    +0.000 A 
ATOM      9  C   UNL     1       5.073   0.393  -2.168  0.00  0.00    +0.000 A 
ATOM     10  C   UNL     1       4.103  -0.292  -2.914  0.00  0.00    +0.000 A 
BRANCH   8  11
ATOM     11  O   UNL     1       7.196   0.453  -1.031  0.00  0.00    +0.000 OA
ATOM     12  C   UNL     1       8.461   0.664  -1.675  0.00  0.00    +0.000 C 
ENDBRANCH   8  11
ENDBRANCH   4   5
ENDBRANCH   1   3
BRANCH   1  13
ATOM     13  O   UNL     1       0.631  -2.842  -5.659  0.00  0.00    +0.000 OA
BRANCH  13  14
ATOM     14  C   UNL     1       0.181  -1.520  -6.095  0.00  0.00    +0.000 C 
BRANCH  14  15
ATOM     15  C   UNL     1      -1.320  -1.411  -6.278  0.00  0.00    +0.000 C 
ATOM     16  C   UNL     1      -1.772   0.100  -6.195  0.00  0.00    +0.000 C 
ENDBRANCH  14  15
BRANCH  14  17
ATOM     17  C   UNL     1       0.844  -1.127  -7.384  0.00  0.00    +0.000 C 
BRANCH  17  18
ATOM     18  C   UNL     1       2.108  -0.288  -7.127  0.00  0.00    +0.000 C 
BRANCH  18  20
ATOM     19  C   UNL     1       3.172   1.588  -5.871  0.00  0.00    +0.000 C 
ATOM     20  C   UNL     1       1.954   0.650  -5.957  0.00  0.00    +0.000 C 
ENDBRANCH  18  20
ENDBRANCH  17  18
ENDBRANCH  14  17
ENDBRANCH  13  14
ENDBRANCH   1  13
TORSDOF 9
ENDMDL
MODEL 4
REMARK VINA RESULT:      -2.9      2.899      9.265
REMARK  Name = bg33_2_ligand
REMARK  12 active torsions:
REMARK  status: ('A' for Active; 'I' for Inactive)
REMARK    1  A    between atoms: C_1  and  C_2
REMARK    2  A    between atoms: C_2  and  C_3
REMARK    3  A    between atoms: C_3  and  C_4
REMARK    4  A    between atoms: C_4  and  C_5
REMARK    5  A    between atoms: C_5  and  C_6
REMARK    6  A    between atoms: C_5  and  O_8
REMARK    7  A    between atoms: C_6  and  C_7
REMARK    8  A    between atoms: O_8  and  C_9
REMARK    9  A    between atoms: C_9  and  C_11
REMARK   10  A    between atoms: C_12  and  C_13
REMARK   11  A    between atoms: C_16  and  O_17
REMARK   12  A    between atoms: O_17  and  C_18
REMARK                            x       y       z     vdW  Elec       q    Type
REMARK                         _______ _______ _______ _____ _____    ______ ____
ROOT
ATOM      1  C   UNL     1       2.583  -5.763   3.210  0.00  0.00    +0.000 C 
ATOM      2  O   UNL     1       1.927  -5.476   4.185  0.00  0.00    +0.000 OA
ENDROOT
BRANCH   1   3
ATOM      3  C   UNL     1       3.980  -5.228   3.083  0.00  0.00    +0.000 C 
ATOM      4  C   UNL     1       5.111  -6.001   3.135  0.00  0.00    +0.000 C 
BRANCH   4   5
ATOM      5  C   UNL     1       6.461  -5.388   2.851  0.00  0.00    +0.000 A 
ATOM      6  C   UNL     1       6.639  -4.556   1.765  0.00  0.00    +0.000 A 
ATOM      7  C   UNL     1       7.909  -4.036   1.533  0.00  0.00    +0.000 A 
ATOM      8  C   UNL     1       9.000  -4.318   2.344  0.00  0.00    +0.000 A 
ATOM      9  C   UNL     1       8.795  -5.167   3.405  0.00  0.00    +0.000 A 
ATOM     10  C   UNL     1       7.528  -5.703   3.672  0.00  0.00    +0.000 A 
BRANCH   8  11
ATOM     11  O   UNL     1      10.263  -3.806   2.064  0.00  0.00    +0.000 OA
ATOM     12  C   UNL     1      11.078  -3.524   3.210  0.00  0.00    +0.000 C 
ENDBRANCH   8  11
ENDBRANCH   4   5
ENDBRANCH   1   3
BRANCH   1  13
ATOM     13  O   UNL     1       1.984  -6.550   2.185  0.00  0.00    +0.000 OA
BRANCH  13  14
ATOM     14  C   UNL     1       1.039  -5.899   1.277  0.00  0.00    +0.000 C 
BRANCH  14  15
ATOM     15  C   UNL     1      -0.333  -6.543   1.253  0.00  0.00    +0.000 C 
ATOM     16  C   UNL     1      -1.212  -6.000   2.448  0.00  0.00    +0.000 C 
ENDBRANCH  14  15
BRANCH  14  17
ATOM     17  C   UNL     1       1.574  -5.873  -0.125  0.00  0.00    +0.000 C 
BRANCH  17  18
ATOM     18  C   UNL     1       2.663  -6.941  -0.325  0.00  0.00    +0.000 C 
BRANCH  18  20
ATOM     19  C   UNL     1       5.134  -7.292  -0.335  0.00  0.00    +0.000 C 
ATOM     20  C   UNL     1       3.986  -6.352  -0.743  0.00  0.00    +0.000 C 
ENDBRANCH  18  20
ENDBRANCH  17  18
ENDBRANCH  14  17
ENDBRANCH  13  14
ENDBRANCH   1  13
TORSDOF 9
ENDMDL
MODEL 5
REMARK VINA RESULT:      -2.9      2.406      4.923
REMARK  Name = bg33_2_ligand
REMARK  12 active torsions:
REMARK  status: ('A' for Active; 'I' for Inactive)
REMARK    1  A    between atoms: C_1  and  C_2
REMARK    2  A    between atoms: C_2  and  C_3
REMARK    3  A    between atoms: C_3  and  C_4
REMARK    4  A    between atoms: C_4  and  C_5
REMARK    5  A    between atoms: C_5  and  C_6
REMARK    6  A    between atoms: C_5  and  O_8
REMARK    7  A    between atoms: C_6  and  C_7
REMARK    8  A    between atoms: O_8  and  C_9
REMARK    9  A    between atoms: C_9  and  C_11
REMARK   10  A    between atoms: C_12  and  C_13
REMARK   11  A    between atoms: C_16  and  O_17
REMARK   12  A    between atoms: O_17  and  C_18
REMARK                            x       y       z     vdW  Elec       q    Type
REMARK                         _______ _______ _______ _____ _____    ______ ____
ROOT
ATOM      1  C   UNL     1       7.926  -4.125   1.909  0.00  0.00    +0.000 C 
ATOM      2  O   UNL     1       8.539  -4.256   0.874  0.00  0.00    +0.000 OA
ENDROOT
BRANCH   1   3
ATOM      3  C   UNL     1       6.461  -4.452   1.939  0.00  0.00    +0.000 C 
ATOM      4  C   UNL     1       5.932  -5.578   2.515  0.00  0.00    +0.000 C 
BRANCH   4   5
ATOM      5  C   UNL     1       4.435  -5.743   2.621  0.00  0.00    +0.000 A 
ATOM      6  C   UNL     1       3.716  -6.286   1.576  0.00  0.00    +0.000 A 
ATOM      7  C   UNL     1       2.334  -6.395   1.714  0.00  0.00    +0.000 A 
ATOM      8  C   UNL     1       1.653  -5.983   2.850  0.00  0.00    +0.000 A 
ATOM      9  C   UNL     1       2.396  -5.427   3.864  0.00  0.00    +0.000 A 
ATOM     10  C   UNL     1       3.789  -5.307   3.762  0.00  0.00    +0.000 A 
BRANCH   8  11
ATOM     11  O   UNL     1       0.268  -6.077   2.940  0.00  0.00    +0.000 OA
ATOM     12  C   UNL     1      -0.422  -6.172   1.686  0.00  0.00    +0.000 C 
ENDBRANCH   8  11
ENDBRANCH   4   5
ENDBRANCH   1   3
BRANCH   1  13
ATOM     13  O   UNL     1       8.603  -3.606   3.049  0.00  0.00    +0.000 OA
BRANCH  13  14
ATOM     14  C   UNL     1       9.787  -4.317   3.533  0.00  0.00    +0.000 C 
BRANCH  14  15
ATOM     15  C   UNL     1       9.686  -4.768   4.976  0.00  0.00    +0.000 C 
ATOM     16  C   UNL     1       8.763  -6.044   5.086  0.00  0.00    +0.000 C 
ENDBRANCH  14  15
BRANCH  14  17
ATOM     17  C   UNL     1      11.018  -3.470   3.387  0.00  0.00    +0.000 C 
BRANCH  17  18
ATOM     18  C   UNL     1      12.270  -4.216   3.878  0.00  0.00    +0.000 C 
BRANCH  18  20
ATOM     19  C   UNL     1      13.245  -2.018   3.208  0.00  0.00    +0.000 C 
ATOM     20  C   UNL     1      13.548  -3.490   3.543  0.00  0.00    +0.000 C 
ENDBRANCH  18  20
ENDBRANCH  17  18
ENDBRANCH  14  17
ENDBRANCH  13  14
ENDBRANCH   1  13
TORSDOF 9
ENDMDL
MODEL 6
REMARK VINA RESULT:      -2.9      8.466     12.840
REMARK  Name = bg33_2_ligand
REMARK  12 active torsions:
REMARK  status: ('A' for Active; 'I' for Inactive)
REMARK    1  A    between atoms: C_1  and  C_2
REMARK    2  A    between atoms: C_2  and  C_3
REMARK    3  A    between atoms: C_3  and  C_4
REMARK    4  A    between atoms: C_4  and  C_5
REMARK    5  A    between atoms: C_5  and  C_6
REMARK    6  A    between atoms: C_5  and  O_8
REMARK    7  A    between atoms: C_6  and  C_7
REMARK    8  A    between atoms: O_8  and  C_9
REMARK    9  A    between atoms: C_9  and  C_11
REMARK   10  A    between atoms: C_12  and  C_13
REMARK   11  A    between atoms: C_16  and  O_17
REMARK   12  A    between atoms: O_17  and  C_18
REMARK                            x       y       z     vdW  Elec       q    Type
REMARK                         _______ _______ _______ _____ _____    ______ ____
ROOT
ATOM      1  C   UNL     1       0.990  -3.975  -3.793  0.00  0.00    +0.000 C 
ATOM      2  O   UNL     1       0.546  -4.865  -3.104  0.00  0.00    +0.000 OA
ENDROOT
BRANCH   1   3
ATOM      3  C   UNL     1       2.077  -3.097  -3.245  0.00  0.00    +0.000 C 
ATOM      4  C   UNL     1       2.957  -2.384  -4.017  0.00  0.00    +0.000 C 
BRANCH   4   5
ATOM      5  C   UNL     1       3.920  -1.416  -3.373  0.00  0.00    +0.000 A 
ATOM      6  C   UNL     1       3.560  -0.098  -3.175  0.00  0.00    +0.000 A 
ATOM      7  C   UNL     1       4.493   0.760  -2.599  0.00  0.00    +0.000 A 
ATOM      8  C   UNL     1       5.763   0.349  -2.217  0.00  0.00    +0.000 A 
ATOM      9  C   UNL     1       6.098  -0.963  -2.448  0.00  0.00    +0.000 A 
ATOM     10  C   UNL     1       5.181  -1.857  -3.020  0.00  0.00    +0.000 A 
BRANCH   8  11
ATOM     11  O   UNL     1       6.681   1.242  -1.674  0.00  0.00    +0.000 OA
ATOM     12  C   UNL     1       6.641   2.569  -2.218  0.00  0.00    +0.000 C 
ENDBRANCH   8  11
ENDBRANCH   4   5
ENDBRANCH   1   3
BRANCH   1  13
ATOM     13  O   UNL     1       0.421  -3.754  -5.080  0.00  0.00    +0.000 OA
BRANCH  13  14
ATOM     14  C   UNL     1      -0.948  -3.244  -5.151  0.00  0.00    +0.000 C 
BRANCH  14  15
ATOM     15  C   UNL     1      -1.895  -4.133  -5.933  0.00  0.00    +0.000 C 
ATOM     16  C   UNL     1      -2.590  -5.172  -4.968  0.00  0.00    +0.000 C 
ENDBRANCH  14  15
BRANCH  14  17
ATOM     17  C   UNL     1      -0.978  -1.871  -5.759  0.00  0.00    +0.000 C 
BRANCH  17  18
ATOM     18  C   UNL     1       0.284  -1.606  -6.598  0.00  0.00    +0.000 C 
BRANCH  18  20
ATOM     19  C   UNL     1       2.305  -0.182  -6.940  0.00  0.00    +0.000 C 
ATOM     20  C   UNL     1       0.907  -0.266  -6.302  0.00  0.00    +0.000 C 
ENDBRANCH  18  20
ENDBRANCH  17  18
ENDBRANCH  14  17
ENDBRANCH  13  14
ENDBRANCH   1  13
TORSDOF 9
ENDMDL
MODEL 7
REMARK VINA RESULT:      -2.9      6.227      7.270
REMARK  Name = bg33_2_ligand
REMARK  12 active torsions:
REMARK  status: ('A' for Active; 'I' for Inactive)
REMARK    1  A    between atoms: C_1  and  C_2
REMARK    2  A    between atoms: C_2  and  C_3
REMARK    3  A    between atoms: C_3  and  C_4
REMARK    4  A    between atoms: C_4  and  C_5
REMARK    5  A    between atoms: C_5  and  C_6
REMARK    6  A    between atoms: C_5  and  O_8
REMARK    7  A    between atoms: C_6  and  C_7
REMARK    8  A    between atoms: O_8  and  C_9
REMARK    9  A    between atoms: C_9  and  C_11
REMARK   10  A    between atoms: C_12  and  C_13
REMARK   11  A    between atoms: C_16  and  O_17
REMARK   12  A    between atoms: O_17  and  C_18
REMARK                            x       y       z     vdW  Elec       q    Type
REMARK                         _______ _______ _______ _____ _____    ______ ____
ROOT
ATOM      1  C   UNL     1      11.994   0.997  -0.699  0.00  0.00    +0.000 C 
ATOM      2  O   UNL     1      12.706   0.350  -1.433  0.00  0.00    +0.000 OA
ENDROOT
BRANCH   1   3
ATOM      3  C   UNL     1      10.504   0.899  -0.849  0.00  0.00    +0.000 C 
ATOM      4  C   UNL     1       9.799   1.402  -1.912  0.00  0.00    +0.000 C 
BRANCH   4   5
ATOM      5  C   UNL     1       8.321   1.125  -2.042  0.00  0.00    +0.000 A 
ATOM      6  C   UNL     1       7.525   1.929  -2.832  0.00  0.00    +0.000 A 
ATOM      7  C   UNL     1       6.164   1.645  -2.899  0.00  0.00    +0.000 A 
ATOM      8  C   UNL     1       5.575   0.595  -2.208  0.00  0.00    +0.000 A 
ATOM      9  C   UNL     1       6.392  -0.173  -1.414  0.00  0.00    +0.000 A 
ATOM     10  C   UNL     1       7.768   0.079  -1.328  0.00  0.00    +0.000 A 
BRANCH   8  11
ATOM     11  O   UNL     1       4.206   0.361  -2.273  0.00  0.00    +0.000 OA
ATOM     12  C   UNL     1       3.786  -0.538  -3.309  0.00  0.00    +0.000 C 
ENDBRANCH   8  11
ENDBRANCH   4   5
ENDBRANCH   1   3
BRANCH   1  13
ATOM     13  O   UNL     1      12.599   1.879   0.243  0.00  0.00    +0.000 OA
BRANCH  13  14
ATOM     14  C   UNL     1      12.110   3.256   0.311  0.00  0.00    +0.000 C 
BRANCH  14  15
ATOM     15  C   UNL     1      13.140   4.294  -0.092  0.00  0.00    +0.000 C 
ATOM     16  C   UNL     1      14.201   4.487   1.061  0.00  0.00    +0.000 C 
ENDBRANCH  14  15
BRANCH  14  17
ATOM     17  C   UNL     1      11.625   3.584   1.693  0.00  0.00    +0.000 C 
BRANCH  17  18
ATOM     18  C   UNL     1      10.096   3.441   1.795  0.00  0.00    +0.000 C 
BRANCH  18  20
ATOM     19  C   UNL     1       7.908   3.649   0.613  0.00  0.00    +0.000 C 
ATOM     20  C   UNL     1       9.372   4.121   0.662  0.00  0.00    +0.000 C 
ENDBRANCH  18  20
ENDBRANCH  17  18
ENDBRANCH  14  17
ENDBRANCH  13  14
ENDBRANCH   1  13
TORSDOF 9
ENDMDL
MODEL 8
REMARK VINA RESULT:      -2.9      6.639      8.305
REMARK  Name = bg33_2_ligand
REMARK  12 active torsions:
REMARK  status: ('A' for Active; 'I' for Inactive)
REMARK    1  A    between atoms: C_1  and  C_2
REMARK    2  A    between atoms: C_2  and  C_3
REMARK    3  A    between atoms: C_3  and  C_4
REMARK    4  A    between atoms: C_4  and  C_5
REMARK    5  A    between atoms: C_5  and  C_6
REMARK    6  A    between atoms: C_5  and  O_8
REMARK    7  A    between atoms: C_6  and  C_7
REMARK    8  A    between atoms: O_8  and  C_9
REMARK    9  A    between atoms: C_9  and  C_11
REMARK   10  A    between atoms: C_12  and  C_13
REMARK   11  A    between atoms: C_16  and  O_17
REMARK   12  A    between atoms: O_17  and  C_18
REMARK                            x       y       z     vdW  Elec       q    Type
REMARK                         _______ _______ _______ _____ _____    ______ ____
ROOT
ATOM      1  C   UNL     1       4.849  -5.509   9.307  0.00  0.00    +0.000 C 
ATOM      2  O   UNL     1       4.864  -6.621   9.784  0.00  0.00    +0.000 OA
ENDROOT
BRANCH   1   3
ATOM      3  C   UNL     1       4.280  -5.309   7.933  0.00  0.00    +0.000 C 
ATOM      4  C   UNL     1       4.636  -6.047   6.833  0.00  0.00    +0.000 C 
BRANCH   4   5
ATOM      5  C   UNL     1       3.901  -5.867   5.528  0.00  0.00    +0.000 A 
ATOM      6  C   UNL     1       4.580  -5.924   4.328  0.00  0.00    +0.000 A 
ATOM      7  C   UNL     1       3.860  -5.727   3.153  0.00  0.00    +0.000 A 
ATOM      8  C   UNL     1       2.495  -5.476   3.136  0.00  0.00    +0.000 A 
ATOM      9  C   UNL     1       1.852  -5.404   4.348  0.00  0.00    +0.000 A 
ATOM     10  C   UNL     1       2.544  -5.603   5.551  0.00  0.00    +0.000 A 
BRANCH   8  11
ATOM     11  O   UNL     1       1.813  -5.252   1.944  0.00  0.00    +0.000 OA
ATOM     12  C   UNL     1       1.895  -6.313   0.982  0.00  0.00    +0.000 C 
ENDBRANCH   8  11
ENDBRANCH   4   5
ENDBRANCH   1   3
BRANCH   1  13
ATOM     13  O   UNL     1       5.431  -4.437  10.043  0.00  0.00    +0.000 OA
BRANCH  13  14
ATOM     14  C   UNL     1       6.051  -3.342   9.295  0.00  0.00    +0.000 C 
BRANCH  14  15
ATOM     15  C   UNL     1       7.550  -3.232   9.498  0.00  0.00    +0.000 C 
ATOM     16  C   UNL     1       8.314  -3.761   8.222  0.00  0.00    +0.000 C 
ENDBRANCH  14  15
BRANCH  14  17
ATOM     17  C   UNL     1       5.427  -2.026   9.656  0.00  0.00    +0.000 C 
BRANCH  17  18
ATOM     18  C   UNL     1       4.519  -1.511   8.526  0.00  0.00    +0.000 C 
BRANCH  18  20
ATOM     19  C   UNL     1       2.425  -2.235   7.376  0.00  0.00    +0.000 C 
ATOM     20  C   UNL     1       3.072  -1.885   8.728  0.00  0.00    +0.000 C 
ENDBRANCH  18  20
ENDBRANCH  17  18
ENDBRANCH  14  17
ENDBRANCH  13  14
ENDBRANCH   1  13
TORSDOF 9
ENDMDL
MODEL 9
REMARK VINA RESULT:      -2.9      1.887      3.580
REMARK  Name = bg33_2_ligand
REMARK  12 active torsions:
REMARK  status: ('A' for Active; 'I' for Inactive)
REMARK    1  A    between atoms: C_1  and  C_2
REMARK    2  A    between atoms: C_2  and  C_3
REMARK    3  A    between atoms: C_3  and  C_4
REMARK    4  A    between atoms: C_4  and  C_5
REMARK    5  A    between atoms: C_5  and  C_6
REMARK    6  A    between atoms: C_5  and  O_8
REMARK    7  A    between atoms: C_6  and  C_7
REMARK    8  A    between atoms: O_8  and  C_9
REMARK    9  A    between atoms: C_9  and  C_11
REMARK   10  A    between atoms: C_12  and  C_13
REMARK   11  A    between atoms: C_16  and  O_17
REMARK   12  A    between atoms: O_17  and  C_18
REMARK                            x       y       z     vdW  Elec       q    Type
REMARK                         _______ _______ _______ _____ _____    ______ ____
ROOT
ATOM      1  C   UNL     1      14.112  -1.813   3.391  0.00  0.00    +0.000 C 
ATOM      2  O   UNL     1      14.912  -1.766   2.485  0.00  0.00    +0.000 OA
ENDROOT
BRANCH   1   3
ATOM      3  C   UNL     1      12.685  -2.168   3.091  0.00  0.00    +0.000 C 
ATOM      4  C   UNL     1      12.280  -3.373   2.578  0.00  0.00    +0.000 C 
BRANCH   4   5
ATOM      5  C   UNL     1      10.809  -3.686   2.448  0.00  0.00    +0.000 A 
ATOM      6  C   UNL     1      10.028  -3.859   3.572  0.00  0.00    +0.000 A 
ATOM      7  C   UNL     1       8.682  -4.170   3.398  0.00  0.00    +0.000 A 
ATOM      8  C   UNL     1       8.095  -4.314   2.149  0.00  0.00    +0.000 A 
ATOM      9  C   UNL     1       8.905  -4.158   1.050  0.00  0.00    +0.000 A 
ATOM     10  C   UNL     1      10.263  -3.838   1.188  0.00  0.00    +0.000 A 
BRANCH   8  11
ATOM     11  O   UNL     1       6.754  -4.658   2.013  0.00  0.00    +0.000 OA
ATOM     12  C   UNL     1       6.473  -5.645   1.011  0.00  0.00    +0.000 C 
ENDBRANCH   8  11
ENDBRANCH   4   5
ENDBRANCH   1   3
BRANCH   1  13
ATOM     13  O   UNL     1      14.540  -1.467   4.705  0.00  0.00    +0.000 OA
BRANCH  13  14
ATOM     14  C   UNL     1      15.588  -2.278   5.325  0.00  0.00    +0.000 C 
BRANCH  14  15
ATOM     15  C   UNL     1      16.995  -1.805   5.018  0.00  0.00    +0.000 C 
ATOM     16  C   UNL     1      17.029  -0.230   4.907  0.00  0.00    +0.000 C 
ENDBRANCH  14  15
BRANCH  14  17
ATOM     17  C   UNL     1      15.471  -3.715   4.907  0.00  0.00    +0.000 C 
BRANCH  17  18
ATOM     18  C   UNL     1      14.515  -4.489   5.832  0.00  0.00    +0.000 C 
BRANCH  18  20
ATOM     19  C   UNL     1      12.358  -5.737   5.703  0.00  0.00    +0.000 C 
ATOM     20  C   UNL     1      13.771  -5.585   5.113  0.00  0.00    +0.000 C 
ENDBRANCH  18  20
ENDBRANCH  17  18
ENDBRANCH  14  17
ENDBRANCH  13  14
ENDBRANCH   1  13
TORSDOF 9
ENDMDL
