REMARK  Name = s3_esm2_f4_ligand
REMARK  12 active torsions:
REMARK  status: ('A' for Active; 'I' for Inactive)
REMARK    1  A    between atoms: C_1  and  C_2
REMARK    2  A    between atoms: C_2  and  C_3
REMARK    3  A    between atoms: C_3  and  C_4
REMARK    4  A    between atoms: C_4  and  C_5
REMARK    5  A    between atoms: C_5  and  C_6
REMARK    6  A    between atoms: C_5  and  O_8
REMARK    7  A    between atoms: C_6  and  C_7
REMARK    8  A    between atoms: O_8  and  C_9
REMARK    9  A    between atoms: C_9  and  C_11
REMARK   10  A    between atoms: C_12  and  C_13
REMARK   11  A    between atoms: C_16  and  O_17
REMARK   12  A    between atoms: O_17  and  C_18
REMARK                            x       y       z     vdW  Elec       q    Type
REMARK                         _______ _______ _______ _____ _____    ______ ____
ROOT
ATOM      1  C   UNL     1       1.094   2.034  -6.351  0.00  0.00    +0.000 C 
ATOM      2  O   UNL     1      -0.088   1.842  -6.441  0.00  0.00    +0.000 OA
ENDROOT
BRANCH   1   3
ATOM      3  C   UNL     1       1.966   1.247  -5.484  0.00  0.00    +0.000 C 
ATOM      4  C   UNL     1       3.286   1.303  -5.612  0.00  0.00    +0.000 C 
BRANCH   4   5
ATOM      5  C   UNL     1       4.224   0.699  -4.640  0.00  0.00    +0.000 A 
ATOM      6  C   UNL     1       3.792   0.261  -3.405  0.00  0.00    +0.000 A 
ATOM      7  C   UNL     1       4.698  -0.268  -2.504  0.00  0.00    +0.000 A 
ATOM      8  C   UNL     1       6.021  -0.363  -2.817  0.00  0.00    +0.000 A 
ATOM      9  C   UNL     1       6.454   0.068  -4.054  0.00  0.00    +0.000 A 
ATOM     10  C   UNL     1       5.552   0.594  -4.956  0.00  0.00    +0.000 A 
BRANCH   8  11
ATOM     11  O   UNL     1       6.877  -0.876  -1.906  0.00  0.00    +0.000 OA
ATOM     12  C   UNL     1       8.273  -0.676  -2.058  0.00  0.00    +0.000 C 
ENDBRANCH   8  11
ENDBRANCH   4   5
ENDBRANCH   1   3
BRANCH   1  13
ATOM     13  O   UNL     1       1.714   3.028  -7.039  0.00  0.00    +0.000 OA
BRANCH  13  14
ATOM     14  C   UNL     1       0.931   4.043  -7.640  0.00  0.00    +0.000 C 
BRANCH  14  15
ATOM     15  C   UNL     1       1.484   5.404  -7.289  0.00  0.00    +0.000 C 
ATOM     16  C   UNL     1       2.373   5.421  -6.080  0.00  0.00    +0.000 C 
ENDBRANCH  14  15
BRANCH  14  17
ATOM     17  C   UNL     1       0.949   3.861  -9.151  0.00  0.00    +0.000 C 
BRANCH  17  18
ATOM     18  C   UNL     1      -0.297   3.179  -9.640  0.00  0.00    +0.000 C 
BRANCH  18  20
ATOM     19  C   UNL     1      -1.712   2.621 -11.623  0.00  0.00    +0.000 C 
ATOM     20  C   UNL     1      -0.406   3.261 -11.142  0.00  0.00    +0.000 C 
ENDBRANCH  18  20
ENDBRANCH  17  18
ENDBRANCH  14  17
ENDBRANCH  13  14
ENDBRANCH   1  13
TORSDOF 9
