MODEL 1
REMARK VINA RESULT:      -4.9      0.000      0.000
REMARK  Name = s3_esm2_f4_ligand
REMARK  12 active torsions:
REMARK  status: ('A' for Active; 'I' for Inactive)
REMARK    1  A    between atoms: C_1  and  C_2
REMARK    2  A    between atoms: C_2  and  C_3
REMARK    3  A    between atoms: C_3  and  C_4
REMARK    4  A    between atoms: C_4  and  C_5
REMARK    5  A    between atoms: C_5  and  C_6
REMARK    6  A    between atoms: C_5  and  O_8
REMARK    7  A    between atoms: C_6  and  C_7
REMARK    8  A    between atoms: O_8  and  C_9
REMARK    9  A    between atoms: C_9  and  C_11
REMARK   10  A    between atoms: C_12  and  C_13
REMARK   11  A    between atoms: C_16  and  O_17
REMARK   12  A    between atoms: O_17  and  C_18
REMARK                            x       y       z     vdW  Elec       q    Type
REMARK                         _______ _______ _______ _____ _____    ______ ____
ROOT
ATOM      1  C   UNL     1      -0.548  -6.519  -2.576  0.00  0.00    +0.000 C 
ATOM      2  O   UNL     1      -0.794  -7.667  -2.324  0.00  0.00    +0.000 OA
ENDROOT
BRANCH   1   3
ATOM      3  C   UNL     1      -0.897  -5.890  -3.846  0.00  0.00    +0.000 C 
ATOM      4  C   UNL     1      -1.599  -4.763  -3.879  0.00  0.00    +0.000 C 
BRANCH   4   5
ATOM      5  C   UNL     1      -1.805  -3.969  -5.111  0.00  0.00    +0.000 A 
ATOM      6  C   UNL     1      -0.739  -3.555  -5.883  0.00  0.00    +0.000 A 
ATOM      7  C   UNL     1      -0.961  -2.785  -7.010  0.00  0.00    +0.000 A 
ATOM      8  C   UNL     1      -2.224  -2.423  -7.373  0.00  0.00    +0.000 A 
ATOM      9  C   UNL     1      -3.291  -2.842  -6.606  0.00  0.00    +0.000 A 
ATOM     10  C   UNL     1      -3.074  -3.613  -5.482  0.00  0.00    +0.000 A 
BRANCH   8  11
ATOM     11  O   UNL     1      -2.399  -1.661  -8.475  0.00  0.00    +0.000 OA
ATOM     12  C   UNL     1      -1.352  -1.543  -9.424  0.00  0.00    +0.000 C 
ENDBRANCH   8  11
ENDBRANCH   4   5
ENDBRANCH   1   3
BRANCH   1  13
ATOM     13  O   UNL     1       0.105  -5.715  -1.697  0.00  0.00    +0.000 OA
BRANCH  13  14
ATOM     14  C   UNL     1      -0.338  -5.659  -0.354  0.00  0.00    +0.000 C 
BRANCH  14  15
ATOM     15  C   UNL     1       0.819  -5.345   0.564  0.00  0.00    +0.000 C 
ATOM     16  C   UNL     1       0.564  -5.644   2.012  0.00  0.00    +0.000 C 
ENDBRANCH  14  15
BRANCH  14  17
ATOM     17  C   UNL     1      -1.401  -4.578  -0.221  0.00  0.00    +0.000 C 
BRANCH  17  18
ATOM     18  C   UNL     1      -2.634  -5.096   0.462  0.00  0.00    +0.000 C 
BRANCH  18  20
ATOM     19  C   UNL     1      -3.906  -6.836  -0.804  0.00  0.00    +0.000 C 
ATOM     20  C   UNL     1      -2.803  -6.576   0.227  0.00  0.00    +0.000 C 
ENDBRANCH  18  20
ENDBRANCH  17  18
ENDBRANCH  14  17
ENDBRANCH  13  14
ENDBRANCH   1  13
TORSDOF 9
ENDMDL
MODEL 2
REMARK VINA RESULT:      -4.9      2.039      3.193
REMARK  Name = s3_esm2_f4_ligand
REMARK  12 active torsions:
REMARK  status: ('A' for Active; 'I' for Inactive)
REMARK    1  A    between atoms: C_1  and  C_2
REMARK    2  A    between atoms: C_2  and  C_3
REMARK    3  A    between atoms: C_3  and  C_4
REMARK    4  A    between atoms: C_4  and  C_5
REMARK    5  A    between atoms: C_5  and  C_6
REMARK    6  A    between atoms: C_5  and  O_8
REMARK    7  A    between atoms: C_6  and  C_7
REMARK    8  A    between atoms: O_8  and  C_9
REMARK    9  A    between atoms: C_9  and  C_11
REMARK   10  A    between atoms: C_12  and  C_13
REMARK   11  A    between atoms: C_16  and  O_17
REMARK   12  A    between atoms: O_17  and  C_18
REMARK                            x       y       z     vdW  Elec       q    Type
REMARK                         _______ _______ _______ _____ _____    ______ ____
ROOT
ATOM      1  C   UNL     1      -2.922  -5.597  -3.688  0.00  0.00    +0.000 C 
ATOM      2  O   UNL     1      -4.038  -5.906  -4.005  0.00  0.00    +0.000 OA
ENDROOT
BRANCH   1   3
ATOM      3  C   UNL     1      -2.090  -4.693  -4.477  0.00  0.00    +0.000 C 
ATOM      4  C   UNL     1      -1.156  -5.164  -5.294  0.00  0.00    +0.000 C 
BRANCH   4   5
ATOM      5  C   UNL     1      -0.428  -4.322  -6.268  0.00  0.00    +0.000 A 
ATOM      6  C   UNL     1       0.498  -4.867  -7.135  0.00  0.00    +0.000 A 
ATOM      7  C   UNL     1       1.188  -4.049  -8.011  0.00  0.00    +0.000 A 
ATOM      8  C   UNL     1       0.970  -2.704  -8.032  0.00  0.00    +0.000 A 
ATOM      9  C   UNL     1       0.040  -2.158  -7.171  0.00  0.00    +0.000 A 
ATOM     10  C   UNL     1      -0.652  -2.972  -6.297  0.00  0.00    +0.000 A 
BRANCH   8  11
ATOM     11  O   UNL     1       1.672  -1.938  -8.895  0.00  0.00    +0.000 OA
ATOM     12  C   UNL     1       1.955  -0.586  -8.570  0.00  0.00    +0.000 C 
ENDBRANCH   8  11
ENDBRANCH   4   5
ENDBRANCH   1   3
BRANCH   1  13
ATOM     13  O   UNL     1      -2.332  -6.091  -2.568  0.00  0.00    +0.000 OA
BRANCH  13  14
ATOM     14  C   UNL     1      -2.444  -5.371  -1.354  0.00  0.00    +0.000 C 
BRANCH  14  15
ATOM     15  C   UNL     1      -3.041  -6.250  -0.281  0.00  0.00    +0.000 C 
ATOM     16  C   UNL     1      -3.010  -5.657   1.097  0.00  0.00    +0.000 C 
ENDBRANCH  14  15
BRANCH  14  17
ATOM     17  C   UNL     1      -1.062  -4.905  -0.919  0.00  0.00    +0.000 C 
BRANCH  17  18
ATOM     18  C   UNL     1       0.012  -5.840  -1.396  0.00  0.00    +0.000 C 
BRANCH  18  20
ATOM     19  C   UNL     1       0.866  -5.091   0.830  0.00  0.00    +0.000 C 
ATOM     20  C   UNL     1       1.213  -5.798  -0.484  0.00  0.00    +0.000 C 
ENDBRANCH  18  20
ENDBRANCH  17  18
ENDBRANCH  14  17
ENDBRANCH  13  14
ENDBRANCH   1  13
TORSDOF 9
ENDMDL
MODEL 3
REMARK VINA RESULT:      -4.9      1.195      2.696
REMARK  Name = s3_esm2_f4_ligand
REMARK  12 active torsions:
REMARK  status: ('A' for Active; 'I' for Inactive)
REMARK    1  A    between atoms: C_1  and  C_2
REMARK    2  A    between atoms: C_2  and  C_3
REMARK    3  A    between atoms: C_3  and  C_4
REMARK    4  A    between atoms: C_4  and  C_5
REMARK    5  A    between atoms: C_5  and  C_6
REMARK    6  A    between atoms: C_5  and  O_8
REMARK    7  A    between atoms: C_6  and  C_7
REMARK    8  A    between atoms: O_8  and  C_9
REMARK    9  A    between atoms: C_9  and  C_11
REMARK   10  A    between atoms: C_12  and  C_13
REMARK   11  A    between atoms: C_16  and  O_17
REMARK   12  A    between atoms: O_17  and  C_18
REMARK                            x       y       z     vdW  Elec       q    Type
REMARK                         _______ _______ _______ _____ _____    ______ ____
ROOT
ATOM      1  C   UNL     1      -2.409  -6.363  -2.101  0.00  0.00    +0.000 C 
ATOM      2  O   UNL     1      -3.294  -6.815  -1.427  0.00  0.00    +0.000 OA
ENDROOT
BRANCH   1   3
ATOM      3  C   UNL     1      -2.623  -5.331  -3.112  0.00  0.00    +0.000 C 
ATOM      4  C   UNL     1      -1.637  -4.944  -3.911  0.00  0.00    +0.000 C 
BRANCH   4   5
ATOM      5  C   UNL     1      -1.837  -4.063  -5.083  0.00  0.00    +0.000 A 
ATOM      6  C   UNL     1      -3.097  -3.636  -5.451  0.00  0.00    +0.000 A 
ATOM      7  C   UNL     1      -3.257  -2.841  -6.571  0.00  0.00    +0.000 A 
ATOM      8  C   UNL     1      -2.184  -2.471  -7.324  0.00  0.00    +0.000 A 
ATOM      9  C   UNL     1      -0.923  -2.891  -6.954  0.00  0.00    +0.000 A 
ATOM     10  C   UNL     1      -0.760  -3.682  -5.836  0.00  0.00    +0.000 A 
BRANCH   8  11
ATOM     11  O   UNL     1      -2.382  -1.702  -8.418  0.00  0.00    +0.000 OA
ATOM     12  C   UNL     1      -1.335  -1.529  -9.358  0.00  0.00    +0.000 C 
ENDBRANCH   8  11
ENDBRANCH   4   5
ENDBRANCH   1   3
BRANCH   1  13
ATOM     13  O   UNL     1      -1.127  -6.801  -1.991  0.00  0.00    +0.000 OA
BRANCH  13  14
ATOM     14  C   UNL     1      -0.477  -6.722  -0.735  0.00  0.00    +0.000 C 
BRANCH  14  15
ATOM     15  C   UNL     1       0.802  -7.525  -0.760  0.00  0.00    +0.000 C 
ATOM     16  C   UNL     1       1.380  -7.732  -2.129  0.00  0.00    +0.000 C 
ENDBRANCH  14  15
BRANCH  14  17
ATOM     17  C   UNL     1      -0.159  -5.266  -0.427  0.00  0.00    +0.000 C 
BRANCH  17  18
ATOM     18  C   UNL     1       1.088  -5.137   0.401  0.00  0.00    +0.000 C 
BRANCH  18  20
ATOM     19  C   UNL     1       1.296  -5.935   2.760  0.00  0.00    +0.000 C 
ATOM     20  C   UNL     1       0.755  -4.836   1.840  0.00  0.00    +0.000 C 
ENDBRANCH  18  20
ENDBRANCH  17  18
ENDBRANCH  14  17
ENDBRANCH  13  14
ENDBRANCH   1  13
TORSDOF 9
ENDMDL
MODEL 4
REMARK VINA RESULT:      -4.8      1.968      6.911
REMARK  Name = s3_esm2_f4_ligand
REMARK  12 active torsions:
REMARK  status: ('A' for Active; 'I' for Inactive)
REMARK    1  A    between atoms: C_1  and  C_2
REMARK    2  A    between atoms: C_2  and  C_3
REMARK    3  A    between atoms: C_3  and  C_4
REMARK    4  A    between atoms: C_4  and  C_5
REMARK    5  A    between atoms: C_5  and  C_6
REMARK    6  A    between atoms: C_5  and  O_8
REMARK    7  A    between atoms: C_6  and  C_7
REMARK    8  A    between atoms: O_8  and  C_9
REMARK    9  A    between atoms: C_9  and  C_11
REMARK   10  A    between atoms: C_12  and  C_13
REMARK   11  A    between atoms: C_16  and  O_17
REMARK   12  A    between atoms: O_17  and  C_18
REMARK                            x       y       z     vdW  Elec       q    Type
REMARK                         _______ _______ _______ _____ _____    ______ ____
ROOT
ATOM      1  C   UNL     1      -1.453  -5.877  -5.466  0.00  0.00    +0.000 C 
ATOM      2  O   UNL     1      -1.945  -6.939  -5.733  0.00  0.00    +0.000 OA
ENDROOT
BRANCH   1   3
ATOM      3  C   UNL     1      -0.981  -5.531  -4.128  0.00  0.00    +0.000 C 
ATOM      4  C   UNL     1      -1.784  -5.626  -3.076  0.00  0.00    +0.000 C 
BRANCH   4   5
ATOM      5  C   UNL     1      -1.314  -5.493  -1.679  0.00  0.00    +0.000 A 
ATOM      6  C   UNL     1       0.025  -5.592  -1.362  0.00  0.00    +0.000 A 
ATOM      7  C   UNL     1       0.432  -5.497  -0.043  0.00  0.00    +0.000 A 
ATOM      8  C   UNL     1      -0.476  -5.309   0.956  0.00  0.00    +0.000 A 
ATOM      9  C   UNL     1      -1.814  -5.203   0.640  0.00  0.00    +0.000 A 
ATOM     10  C   UNL     1      -2.222  -5.294  -0.675  0.00  0.00    +0.000 A 
BRANCH   8  11
ATOM     11  O   UNL     1      -0.041  -5.232   2.233  0.00  0.00    +0.000 OA
ATOM     12  C   UNL     1       1.250  -4.713   2.509  0.00  0.00    +0.000 C 
ENDBRANCH   8  11
ENDBRANCH   4   5
ENDBRANCH   1   3
BRANCH   1  13
ATOM     13  O   UNL     1      -1.319  -4.894  -6.394  0.00  0.00    +0.000 OA
BRANCH  13  14
ATOM     14  C   UNL     1      -1.666  -3.566  -6.047  0.00  0.00    +0.000 C 
BRANCH  14  15
ATOM     15  C   UNL     1      -0.623  -2.603  -6.563  0.00  0.00    +0.000 C 
ATOM     16  C   UNL     1       0.408  -3.226  -7.459  0.00  0.00    +0.000 C 
ENDBRANCH  14  15
BRANCH  14  17
ATOM     17  C   UNL     1      -3.019  -3.225  -6.655  0.00  0.00    +0.000 C 
BRANCH  17  18
ATOM     18  C   UNL     1      -4.135  -3.434  -5.672  0.00  0.00    +0.000 C 
BRANCH  18  20
ATOM     19  C   UNL     1      -5.101  -5.544  -4.744  0.00  0.00    +0.000 C 
ATOM     20  C   UNL     1      -4.918  -4.682  -5.997  0.00  0.00    +0.000 C 
ENDBRANCH  18  20
ENDBRANCH  17  18
ENDBRANCH  14  17
ENDBRANCH  13  14
ENDBRANCH   1  13
TORSDOF 9
ENDMDL
MODEL 5
REMARK VINA RESULT:      -4.8      1.814      3.184
REMARK  Name = s3_esm2_f4_ligand
REMARK  12 active torsions:
REMARK  status: ('A' for Active; 'I' for Inactive)
REMARK    1  A    between atoms: C_1  and  C_2
REMARK    2  A    between atoms: C_2  and  C_3
REMARK    3  A    between atoms: C_3  and  C_4
REMARK    4  A    between atoms: C_4  and  C_5
REMARK    5  A    between atoms: C_5  and  C_6
REMARK    6  A    between atoms: C_5  and  O_8
REMARK    7  A    between atoms: C_6  and  C_7
REMARK    8  A    between atoms: O_8  and  C_9
REMARK    9  A    between atoms: C_9  and  C_11
REMARK   10  A    between atoms: C_12  and  C_13
REMARK   11  A    between atoms: C_16  and  O_17
REMARK   12  A    between atoms: O_17  and  C_18
REMARK                            x       y       z     vdW  Elec       q    Type
REMARK                         _______ _______ _______ _____ _____    ______ ____
ROOT
ATOM      1  C   UNL     1      -2.369  -5.749  -2.999  0.00  0.00    +0.000 C 
ATOM      2  O   UNL     1      -3.519  -5.974  -3.263  0.00  0.00    +0.000 OA
ENDROOT
BRANCH   1   3
ATOM      3  C   UNL     1      -1.499  -4.942  -3.850  0.00  0.00    +0.000 C 
ATOM      4  C   UNL     1      -1.196  -5.333  -5.081  0.00  0.00    +0.000 C 
BRANCH   4   5
ATOM      5  C   UNL     1      -0.497  -4.471  -6.060  0.00  0.00    +0.000 A 
ATOM      6  C   UNL     1      -0.791  -3.128  -6.170  0.00  0.00    +0.000 A 
ATOM      7  C   UNL     1      -0.146  -2.354  -7.117  0.00  0.00    +0.000 A 
ATOM      8  C   UNL     1       0.782  -2.901  -7.952  0.00  0.00    +0.000 A 
ATOM      9  C   UNL     1       1.083  -4.243  -7.839  0.00  0.00    +0.000 A 
ATOM     10  C   UNL     1       0.443  -5.017  -6.893  0.00  0.00    +0.000 A 
BRANCH   8  11
ATOM     11  O   UNL     1       1.384  -2.115  -8.872  0.00  0.00    +0.000 OA
ATOM     12  C   UNL     1       1.488  -0.719  -8.647  0.00  0.00    +0.000 C 
ENDBRANCH   8  11
ENDBRANCH   4   5
ENDBRANCH   1   3
BRANCH   1  13
ATOM     13  O   UNL     1      -1.776  -6.255  -1.887  0.00  0.00    +0.000 OA
BRANCH  13  14
ATOM     14  C   UNL     1      -1.187  -5.367  -0.954  0.00  0.00    +0.000 C 
BRANCH  14  15
ATOM     15  C   UNL     1      -2.232  -4.855   0.009  0.00  0.00    +0.000 C 
ATOM     16  C   UNL     1      -2.889  -5.919   0.837  0.00  0.00    +0.000 C 
ENDBRANCH  14  15
BRANCH  14  17
ATOM     17  C   UNL     1      -0.100  -6.100  -0.181  0.00  0.00    +0.000 C 
BRANCH  17  18
ATOM     18  C   UNL     1       0.849  -5.142   0.480  0.00  0.00    +0.000 C 
BRANCH  18  20
ATOM     19  C   UNL     1       1.037  -4.380   2.853  0.00  0.00    +0.000 C 
ATOM     20  C   UNL     1       1.152  -5.570   1.895  0.00  0.00    +0.000 C 
ENDBRANCH  18  20
ENDBRANCH  17  18
ENDBRANCH  14  17
ENDBRANCH  13  14
ENDBRANCH   1  13
TORSDOF 9
ENDMDL
MODEL 6
REMARK VINA RESULT:      -4.7      2.184      7.524
REMARK  Name = s3_esm2_f4_ligand
REMARK  12 active torsions:
REMARK  status: ('A' for Active; 'I' for Inactive)
REMARK    1  A    between atoms: C_1  and  C_2
REMARK    2  A    between atoms: C_2  and  C_3
REMARK    3  A    between atoms: C_3  and  C_4
REMARK    4  A    between atoms: C_4  and  C_5
REMARK    5  A    between atoms: C_5  and  C_6
REMARK    6  A    between atoms: C_5  and  O_8
REMARK    7  A    between atoms: C_6  and  C_7
REMARK    8  A    between atoms: O_8  and  C_9
REMARK    9  A    between atoms: C_9  and  C_11
REMARK   10  A    between atoms: C_12  and  C_13
REMARK   11  A    between atoms: C_16  and  O_17
REMARK   12  A    between atoms: O_17  and  C_18
REMARK                            x       y       z     vdW  Elec       q    Type
REMARK                         _______ _______ _______ _____ _____    ______ ____
ROOT
ATOM      1  C   UNL     1      -3.011  -5.166  -4.454  0.00  0.00    +0.000 C 
ATOM      2  O   UNL     1      -3.688  -5.928  -5.088  0.00  0.00    +0.000 OA
ENDROOT
BRANCH   1   3
ATOM      3  C   UNL     1      -2.587  -5.428  -3.082  0.00  0.00    +0.000 C 
ATOM      4  C   UNL     1      -1.320  -5.270  -2.717  0.00  0.00    +0.000 C 
BRANCH   4   5
ATOM      5  C   UNL     1      -0.867  -5.316  -1.309  0.00  0.00    +0.000 A 
ATOM      6  C   UNL     1       0.452  -5.564  -0.989  0.00  0.00    +0.000 A 
ATOM      7  C   UNL     1       0.839  -5.635   0.336  0.00  0.00    +0.000 A 
ATOM      8  C   UNL     1      -0.067  -5.465   1.340  0.00  0.00    +0.000 A 
ATOM      9  C   UNL     1      -1.385  -5.210   1.022  0.00  0.00    +0.000 A 
ATOM     10  C   UNL     1      -1.774  -5.136  -0.300  0.00  0.00    +0.000 A 
BRANCH   8  11
ATOM     11  O   UNL     1       0.348  -5.552   2.623  0.00  0.00    +0.000 OA
ATOM     12  C   UNL     1       1.633  -5.071   2.983  0.00  0.00    +0.000 C 
ENDBRANCH   8  11
ENDBRANCH   4   5
ENDBRANCH   1   3
BRANCH   1  13
ATOM     13  O   UNL     1      -2.604  -3.974  -4.963  0.00  0.00    +0.000 OA
BRANCH  13  14
ATOM     14  C   UNL     1      -2.108  -3.922  -6.288  0.00  0.00    +0.000 C 
BRANCH  14  15
ATOM     15  C   UNL     1      -2.936  -2.970  -7.117  0.00  0.00    +0.000 C 
ATOM     16  C   UNL     1      -2.134  -2.004  -7.940  0.00  0.00    +0.000 C 
ENDBRANCH  14  15
BRANCH  14  17
ATOM     17  C   UNL     1      -0.661  -3.450  -6.263  0.00  0.00    +0.000 C 
BRANCH  17  18
ATOM     18  C   UNL     1       0.259  -4.453  -6.898  0.00  0.00    +0.000 C 
BRANCH  18  20
ATOM     19  C   UNL     1       1.002  -6.839  -6.957  0.00  0.00    +0.000 C 
ATOM     20  C   UNL     1       0.044  -5.829  -6.317  0.00  0.00    +0.000 C 
ENDBRANCH  18  20
ENDBRANCH  17  18
ENDBRANCH  14  17
ENDBRANCH  13  14
ENDBRANCH   1  13
TORSDOF 9
ENDMDL
MODEL 7
REMARK VINA RESULT:      -4.7      2.164      7.474
REMARK  Name = s3_esm2_f4_ligand
REMARK  12 active torsions:
REMARK  status: ('A' for Active; 'I' for Inactive)
REMARK    1  A    between atoms: C_1  and  C_2
REMARK    2  A    between atoms: C_2  and  C_3
REMARK    3  A    between atoms: C_3  and  C_4
REMARK    4  A    between atoms: C_4  and  C_5
REMARK    5  A    between atoms: C_5  and  C_6
REMARK    6  A    between atoms: C_5  and  O_8
REMARK    7  A    between atoms: C_6  and  C_7
REMARK    8  A    between atoms: O_8  and  C_9
REMARK    9  A    between atoms: C_9  and  C_11
REMARK   10  A    between atoms: C_12  and  C_13
REMARK   11  A    between atoms: C_16  and  O_17
REMARK   12  A    between atoms: O_17  and  C_18
REMARK                            x       y       z     vdW  Elec       q    Type
REMARK                         _______ _______ _______ _____ _____    ______ ____
ROOT
ATOM      1  C   UNL     1      -3.082  -5.259  -4.920  0.00  0.00    +0.000 C 
ATOM      2  O   UNL     1      -4.201  -5.696  -4.927  0.00  0.00    +0.000 OA
ENDROOT
BRANCH   1   3
ATOM      3  C   UNL     1      -2.355  -4.947  -3.693  0.00  0.00    +0.000 C 
ATOM      4  C   UNL     1      -2.080  -5.894  -2.803  0.00  0.00    +0.000 C 
BRANCH   4   5
ATOM      5  C   UNL     1      -1.175  -5.689  -1.651  0.00  0.00    +0.000 A 
ATOM      6  C   UNL     1      -1.611  -5.066  -0.500  0.00  0.00    +0.000 A 
ATOM      7  C   UNL     1      -0.733  -4.858   0.548  0.00  0.00    +0.000 A 
ATOM      8  C   UNL     1       0.566  -5.259   0.461  0.00  0.00    +0.000 A 
ATOM      9  C   UNL     1       1.003  -5.888  -0.686  0.00  0.00    +0.000 A 
ATOM     10  C   UNL     1       0.128  -6.099  -1.733  0.00  0.00    +0.000 A 
BRANCH   8  11
ATOM     11  O   UNL     1       1.397  -5.029   1.502  0.00  0.00    +0.000 OA
ATOM     12  C   UNL     1       0.867  -4.597   2.745  0.00  0.00    +0.000 C 
ENDBRANCH   8  11
ENDBRANCH   4   5
ENDBRANCH   1   3
BRANCH   1  13
ATOM     13  O   UNL     1      -2.408  -4.995  -6.069  0.00  0.00    +0.000 OA
BRANCH  13  14
ATOM     14  C   UNL     1      -1.166  -4.319  -6.000  0.00  0.00    +0.000 C 
BRANCH  14  15
ATOM     15  C   UNL     1      -0.095  -5.126  -6.695  0.00  0.00    +0.000 C 
ATOM     16  C   UNL     1       0.217  -6.440  -6.040  0.00  0.00    +0.000 C 
ENDBRANCH  14  15
BRANCH  14  17
ATOM     17  C   UNL     1      -1.296  -2.961  -6.674  0.00  0.00    +0.000 C 
BRANCH  17  18
ATOM     18  C   UNL     1      -0.003  -2.197  -6.633  0.00  0.00    +0.000 C 
BRANCH  18  20
ATOM     19  C   UNL     1       1.460  -0.598  -7.878  0.00  0.00    +0.000 C 
ATOM     20  C   UNL     1       0.341  -1.639  -7.991  0.00  0.00    +0.000 C 
ENDBRANCH  18  20
ENDBRANCH  17  18
ENDBRANCH  14  17
ENDBRANCH  13  14
ENDBRANCH   1  13
TORSDOF 9
ENDMDL
MODEL 8
REMARK VINA RESULT:      -4.6      2.040      7.608
REMARK  Name = s3_esm2_f4_ligand
REMARK  12 active torsions:
REMARK  status: ('A' for Active; 'I' for Inactive)
REMARK    1  A    between atoms: C_1  and  C_2
REMARK    2  A    between atoms: C_2  and  C_3
REMARK    3  A    between atoms: C_3  and  C_4
REMARK    4  A    between atoms: C_4  and  C_5
REMARK    5  A    between atoms: C_5  and  C_6
REMARK    6  A    between atoms: C_5  and  O_8
REMARK    7  A    between atoms: C_6  and  C_7
REMARK    8  A    between atoms: O_8  and  C_9
REMARK    9  A    between atoms: C_9  and  C_11
REMARK   10  A    between atoms: C_12  and  C_13
REMARK   11  A    between atoms: C_16  and  O_17
REMARK   12  A    between atoms: O_17  and  C_18
REMARK                            x       y       z     vdW  Elec       q    Type
REMARK                         _______ _______ _______ _____ _____    ______ ____
ROOT
ATOM      1  C   UNL     1      -1.656  -6.099  -5.027  0.00  0.00    +0.000 C 
ATOM      2  O   UNL     1      -1.591  -7.021  -5.794  0.00  0.00    +0.000 OA
ENDROOT
BRANCH   1   3
ATOM      3  C   UNL     1      -1.069  -6.130  -3.691  0.00  0.00    +0.000 C 
ATOM      4  C   UNL     1      -1.369  -5.201  -2.792  0.00  0.00    +0.000 C 
BRANCH   4   5
ATOM      5  C   UNL     1      -0.977  -5.289  -1.368  0.00  0.00    +0.000 A 
ATOM      6  C   UNL     1       0.331  -5.532  -0.999  0.00  0.00    +0.000 A 
ATOM      7  C   UNL     1       0.661  -5.644   0.339  0.00  0.00    +0.000 A 
ATOM      8  C   UNL     1      -0.290  -5.518   1.307  0.00  0.00    +0.000 A 
ATOM      9  C   UNL     1      -1.596  -5.269   0.941  0.00  0.00    +0.000 A 
ATOM     10  C   UNL     1      -1.929  -5.154  -0.393  0.00  0.00    +0.000 A 
BRANCH   8  11
ATOM     11  O   UNL     1       0.071  -5.644   2.603  0.00  0.00    +0.000 OA
ATOM     12  C   UNL     1       0.964  -4.706   3.182  0.00  0.00    +0.000 C 
ENDBRANCH   8  11
ENDBRANCH   4   5
ENDBRANCH   1   3
BRANCH   1  13
ATOM     13  O   UNL     1      -2.311  -4.951  -5.339  0.00  0.00    +0.000 OA
BRANCH  13  14
ATOM     14  C   UNL     1      -1.946  -4.245  -6.511  0.00  0.00    +0.000 C 
BRANCH  14  15
ATOM     15  C   UNL     1      -2.960  -3.166  -6.807  0.00  0.00    +0.000 C 
ATOM     16  C   UNL     1      -4.040  -3.027  -5.773  0.00  0.00    +0.000 C 
ENDBRANCH  14  15
BRANCH  14  17
ATOM     17  C   UNL     1      -0.576  -3.613  -6.308  0.00  0.00    +0.000 C 
BRANCH  17  18
ATOM     18  C   UNL     1       0.431  -4.153  -7.284  0.00  0.00    +0.000 C 
BRANCH  18  20
ATOM     19  C   UNL     1       0.549  -1.678  -7.612  0.00  0.00    +0.000 C 
ATOM     20  C   UNL     1       1.038  -3.043  -8.105  0.00  0.00    +0.000 C 
ENDBRANCH  18  20
ENDBRANCH  17  18
ENDBRANCH  14  17
ENDBRANCH  13  14
ENDBRANCH   1  13
TORSDOF 9
ENDMDL
MODEL 9
REMARK VINA RESULT:      -4.6      2.402      7.370
REMARK  Name = s3_esm2_f4_ligand
REMARK  12 active torsions:
REMARK  status: ('A' for Active; 'I' for Inactive)
REMARK    1  A    between atoms: C_1  and  C_2
REMARK    2  A    between atoms: C_2  and  C_3
REMARK    3  A    between atoms: C_3  and  C_4
REMARK    4  A    between atoms: C_4  and  C_5
REMARK    5  A    between atoms: C_5  and  C_6
REMARK    6  A    between atoms: C_5  and  O_8
REMARK    7  A    between atoms: C_6  and  C_7
REMARK    8  A    between atoms: O_8  and  C_9
REMARK    9  A    between atoms: C_9  and  C_11
REMARK   10  A    between atoms: C_12  and  C_13
REMARK   11  A    between atoms: C_16  and  O_17
REMARK   12  A    between atoms: O_17  and  C_18
REMARK                            x       y       z     vdW  Elec       q    Type
REMARK                         _______ _______ _______ _____ _____    ______ ____
ROOT
ATOM      1  C   UNL     1      -3.604  -6.681  -3.933  0.00  0.00    +0.000 C 
ATOM      2  O   UNL     1      -4.180  -7.710  -4.158  0.00  0.00    +0.000 OA
ENDROOT
BRANCH   1   3
ATOM      3  C   UNL     1      -2.480  -6.583  -3.006  0.00  0.00    +0.000 C 
ATOM      4  C   UNL     1      -2.347  -5.534  -2.203  0.00  0.00    +0.000 C 
BRANCH   4   5
ATOM      5  C   UNL     1      -1.357  -5.471  -1.105  0.00  0.00    +0.000 A 
ATOM      6  C   UNL     1      -1.741  -5.187   0.189  0.00  0.00    +0.000 A 
ATOM      7  C   UNL     1      -0.789  -5.101   1.189  0.00  0.00    +0.000 A 
ATOM      8  C   UNL     1       0.532  -5.291   0.915  0.00  0.00    +0.000 A 
ATOM      9  C   UNL     1       0.917  -5.581  -0.378  0.00  0.00    +0.000 A 
ATOM     10  C   UNL     1      -0.030  -5.670  -1.377  0.00  0.00    +0.000 A 
BRANCH   8  11
ATOM     11  O   UNL     1       1.433  -5.188   1.916  0.00  0.00    +0.000 OA
ATOM     12  C   UNL     1       1.188  -4.303   2.998  0.00  0.00    +0.000 C 
ENDBRANCH   8  11
ENDBRANCH   4   5
ENDBRANCH   1   3
BRANCH   1  13
ATOM     13  O   UNL     1      -3.975  -5.508  -4.511  0.00  0.00    +0.000 OA
BRANCH  13  14
ATOM     14  C   UNL     1      -3.347  -5.103  -5.713  0.00  0.00    +0.000 C 
BRANCH  14  15
ATOM     15  C   UNL     1      -4.310  -5.224  -6.870  0.00  0.00    +0.000 C 
ATOM     16  C   UNL     1      -3.664  -5.184  -8.224  0.00  0.00    +0.000 C 
ENDBRANCH  14  15
BRANCH  14  17
ATOM     17  C   UNL     1      -2.893  -3.656  -5.578  0.00  0.00    +0.000 C 
BRANCH  17  18
ATOM     18  C   UNL     1      -1.421  -3.564  -5.291  0.00  0.00    +0.000 C 
BRANCH  18  20
ATOM     19  C   UNL     1       0.206  -4.519  -6.929  0.00  0.00    +0.000 C 
ATOM     20  C   UNL     1      -0.703  -4.815  -5.732  0.00  0.00    +0.000 C 
ENDBRANCH  18  20
ENDBRANCH  17  18
ENDBRANCH  14  17
ENDBRANCH  13  14
ENDBRANCH   1  13
TORSDOF 9
ENDMDL
