REMARK  Name = ox2_shuffle_ligand
REMARK  5 active torsions:
REMARK  status: ('A' for Active; 'I' for Inactive)
REMARK    1  A    between atoms: C_1  and  O_2
REMARK    2  A    between atoms: O_2  and  C_3
REMARK    3  A    between atoms: C_6  and  C_7
REMARK    4  A    between atoms: C_7  and  C_9
REMARK    5  A    between atoms: C_15  and  O_16
REMARK                            x       y       z     vdW  Elec       q    Type
REMARK                         _______ _______ _______ _____ _____    ______ ____
ROOT
ATOM      1  C   UNL     1      -3.068   5.132   6.874  0.00  0.00    +0.000 A 
ATOM      2  C   UNL     1      -4.046   5.119   7.856  0.00  0.00    +0.000 A 
ATOM      3  C   UNL     1      -4.338   3.956   8.538  0.00  0.00    +0.000 A 
ATOM      4  C   UNL     1      -3.659   2.781   8.242  0.00  0.00    +0.000 A 
ATOM      5  C   UNL     1      -2.675   2.787   7.243  0.00  0.00    +0.000 A 
ATOM      6  C   UNL     1      -2.388   3.968   6.570  0.00  0.00    +0.000 A 
ENDROOT
BRANCH   1   8
ATOM      7  C   UNL     1      -1.581   6.560   5.633  0.00  0.00    +0.000 C 
ATOM      8  O   UNL     1      -2.826   6.325   6.240  0.00  0.00    +0.000 OA
ENDBRANCH   1   8
BRANCH   4   9
ATOM      9  C   UNL     1      -3.976   1.510   8.984  0.00  0.00    +0.000 C 
ATOM     10  O   UNL     1      -3.355   0.501   8.733  0.00  0.00    +0.000 OA
BRANCH   9  11
ATOM     11  C   UNL     1      -5.051   1.486   9.997  0.00  0.00    +0.000 A 
ATOM     12  C   UNL     1      -4.889   2.133  11.216  0.00  0.00    +0.000 A 
ATOM     13  C   UNL     1      -5.903   2.090  12.161  0.00  0.00    +0.000 A 
ATOM     14  C   UNL     1      -7.086   1.408  11.884  0.00  0.00    +0.000 A 
ATOM     15  C   UNL     1      -7.244   0.748  10.671  0.00  0.00    +0.000 A 
ATOM     16  C   UNL     1      -6.217   0.775   9.725  0.00  0.00    +0.000 A 
ENDBRANCH   9  11
ENDBRANCH   4   9
BRANCH   5  17
ATOM     17  O   UNL     1      -2.007   1.638   6.944  0.00  0.00    +0.000 OA
ATOM     18  H   UNL     1      -1.312   1.639   6.239  0.00  0.00    +0.000 HD
ENDBRANCH   5  17
TORSDOF 4
