MODEL 1
REMARK VINA RESULT:      -3.6      0.000      0.000
REMARK  Name = ox2_shuffle_ligand
REMARK  5 active torsions:
REMARK  status: ('A' for Active; 'I' for Inactive)
REMARK    1  A    between atoms: C_1  and  O_2
REMARK    2  A    between atoms: O_2  and  C_3
REMARK    3  A    between atoms: C_6  and  C_7
REMARK    4  A    between atoms: C_7  and  C_9
REMARK    5  A    between atoms: C_15  and  O_16
REMARK                            x       y       z     vdW  Elec       q    Type
REMARK                         _______ _______ _______ _____ _____    ______ ____
ROOT
ATOM      1  C   UNL     1       6.579   0.763   8.458  0.00  0.00    +0.000 A 
ATOM      2  C   UNL     1       6.590   2.082   8.883  0.00  0.00    +0.000 A 
ATOM      3  C   UNL     1       6.456   3.111   7.974  0.00  0.00    +0.000 A 
ATOM      4  C   UNL     1       6.314   2.835   6.619  0.00  0.00    +0.000 A 
ATOM      5  C   UNL     1       6.311   1.502   6.184  0.00  0.00    +0.000 A 
ATOM      6  C   UNL     1       6.441   0.477   7.113  0.00  0.00    +0.000 A 
ENDROOT
BRANCH   1   8
ATOM      7  C   UNL     1       5.781  -1.259   9.491  0.00  0.00    +0.000 C 
ATOM      8  O   UNL     1       6.712  -0.210   9.418  0.00  0.00    +0.000 OA
ENDBRANCH   1   8
BRANCH   4   9
ATOM      9  C   UNL     1       6.168   3.956   5.625  0.00  0.00    +0.000 C 
ATOM     10  O   UNL     1       6.927   4.022   4.683  0.00  0.00    +0.000 OA
BRANCH   9  11
ATOM     11  C   UNL     1       5.120   4.981   5.806  0.00  0.00    +0.000 A 
ATOM     12  C   UNL     1       3.809   4.612   6.079  0.00  0.00    +0.000 A 
ATOM     13  C   UNL     1       2.834   5.587   6.233  0.00  0.00    +0.000 A 
ATOM     14  C   UNL     1       3.172   6.934   6.124  0.00  0.00    +0.000 A 
ATOM     15  C   UNL     1       4.480   7.305   5.836  0.00  0.00    +0.000 A 
ATOM     16  C   UNL     1       5.460   6.324   5.663  0.00  0.00    +0.000 A 
ENDBRANCH   9  11
ENDBRANCH   4   9
BRANCH   5  17
ATOM     17  O   UNL     1       6.177   1.224   4.858  0.00  0.00    +0.000 OA
ATOM     18  H   UNL     1       5.281   1.036   4.480  0.00  0.00    +0.000 HD
ENDBRANCH   5  17
TORSDOF 4
ENDMDL
MODEL 2
REMARK VINA RESULT:      -3.6      3.397      5.223
REMARK  Name = ox2_shuffle_ligand
REMARK  5 active torsions:
REMARK  status: ('A' for Active; 'I' for Inactive)
REMARK    1  A    between atoms: C_1  and  O_2
REMARK    2  A    between atoms: O_2  and  C_3
REMARK    3  A    between atoms: C_6  and  C_7
REMARK    4  A    between atoms: C_7  and  C_9
REMARK    5  A    between atoms: C_15  and  O_16
REMARK                            x       y       z     vdW  Elec       q    Type
REMARK                         _______ _______ _______ _____ _____    ______ ____
ROOT
ATOM      1  C   UNL     1       4.898   3.762   6.003  0.00  0.00    +0.000 A 
ATOM      2  C   UNL     1       4.238   4.802   5.368  0.00  0.00    +0.000 A 
ATOM      3  C   UNL     1       3.196   5.455   5.994  0.00  0.00    +0.000 A 
ATOM      4  C   UNL     1       2.792   5.071   7.267  0.00  0.00    +0.000 A 
ATOM      5  C   UNL     1       3.452   4.013   7.909  0.00  0.00    +0.000 A 
ATOM      6  C   UNL     1       4.503   3.370   7.268  0.00  0.00    +0.000 A 
ENDROOT
BRANCH   1   8
ATOM      7  C   UNL     1       6.235   1.811   5.560  0.00  0.00    +0.000 C 
ATOM      8  O   UNL     1       5.929   3.161   5.323  0.00  0.00    +0.000 OA
ENDBRANCH   1   8
BRANCH   4   9
ATOM      9  C   UNL     1       1.655   5.781   7.952  0.00  0.00    +0.000 C 
ATOM     10  O   UNL     1       1.845   6.321   9.020  0.00  0.00    +0.000 OA
BRANCH   9  11
ATOM     11  C   UNL     1       0.312   5.803   7.339  0.00  0.00    +0.000 A 
ATOM     12  C   UNL     1      -0.169   6.955   6.729  0.00  0.00    +0.000 A 
ATOM     13  C   UNL     1      -1.438   6.963   6.170  0.00  0.00    +0.000 A 
ATOM     14  C   UNL     1      -2.225   5.813   6.210  0.00  0.00    +0.000 A 
ATOM     15  C   UNL     1      -1.751   4.664   6.832  0.00  0.00    +0.000 A 
ATOM     16  C   UNL     1      -0.480   4.660   7.412  0.00  0.00    +0.000 A 
ENDBRANCH   9  11
ENDBRANCH   4   9
BRANCH   5  17
ATOM     17  O   UNL     1       3.060   3.628   9.155  0.00  0.00    +0.000 OA
ATOM     18  H   UNL     1       2.732   2.707   9.308  0.00  0.00    +0.000 HD
ENDBRANCH   5  17
TORSDOF 4
ENDMDL
MODEL 3
REMARK VINA RESULT:      -3.5      7.999      9.714
REMARK  Name = ox2_shuffle_ligand
REMARK  5 active torsions:
REMARK  status: ('A' for Active; 'I' for Inactive)
REMARK    1  A    between atoms: C_1  and  O_2
REMARK    2  A    between atoms: O_2  and  C_3
REMARK    3  A    between atoms: C_6  and  C_7
REMARK    4  A    between atoms: C_7  and  C_9
REMARK    5  A    between atoms: C_15  and  O_16
REMARK                            x       y       z     vdW  Elec       q    Type
REMARK                         _______ _______ _______ _____ _____    ______ ____
ROOT
ATOM      1  C   UNL     1      -5.535   2.872   8.975  0.00  0.00    +0.000 A 
ATOM      2  C   UNL     1      -5.318   4.240   9.025  0.00  0.00    +0.000 A 
ATOM      3  C   UNL     1      -4.186   4.790   8.459  0.00  0.00    +0.000 A 
ATOM      4  C   UNL     1      -3.248   3.976   7.837  0.00  0.00    +0.000 A 
ATOM      5  C   UNL     1      -3.459   2.591   7.791  0.00  0.00    +0.000 A 
ATOM      6  C   UNL     1      -4.607   2.053   8.361  0.00  0.00    +0.000 A 
ENDROOT
BRANCH   1   8
ATOM      7  C   UNL     1      -7.497   1.483   8.859  0.00  0.00    +0.000 C 
ATOM      8  O   UNL     1      -6.684   2.394   9.554  0.00  0.00    +0.000 OA
ENDBRANCH   1   8
BRANCH   4   9
ATOM      9  C   UNL     1      -2.012   4.574   7.219  0.00  0.00    +0.000 C 
ATOM     10  O   UNL     1      -0.920   4.201   7.586  0.00  0.00    +0.000 OA
BRANCH   9  11
ATOM     11  C   UNL     1      -2.128   5.623   6.185  0.00  0.00    +0.000 A 
ATOM     12  C   UNL     1      -1.560   6.876   6.382  0.00  0.00    +0.000 A 
ATOM     13  C   UNL     1      -1.689   7.854   5.407  0.00  0.00    +0.000 A 
ATOM     14  C   UNL     1      -2.377   7.576   4.228  0.00  0.00    +0.000 A 
ATOM     15  C   UNL     1      -2.958   6.328   4.035  0.00  0.00    +0.000 A 
ATOM     16  C   UNL     1      -2.845   5.348   5.023  0.00  0.00    +0.000 A 
ENDBRANCH   9  11
ENDBRANCH   4   9
BRANCH   5  17
ATOM     17  O   UNL     1      -2.542   1.786   7.187  0.00  0.00    +0.000 OA
ATOM     18  H   UNL     1      -1.589   1.834   7.453  0.00  0.00    +0.000 HD
ENDBRANCH   5  17
TORSDOF 4
ENDMDL
MODEL 4
REMARK VINA RESULT:      -3.4      8.370      9.531
REMARK  Name = ox2_shuffle_ligand
REMARK  5 active torsions:
REMARK  status: ('A' for Active; 'I' for Inactive)
REMARK    1  A    between atoms: C_1  and  O_2
REMARK    2  A    between atoms: O_2  and  C_3
REMARK    3  A    between atoms: C_6  and  C_7
REMARK    4  A    between atoms: C_7  and  C_9
REMARK    5  A    between atoms: C_15  and  O_16
REMARK                            x       y       z     vdW  Elec       q    Type
REMARK                         _______ _______ _______ _____ _____    ______ ____
ROOT
ATOM      1  C   UNL     1      -4.170   1.718   9.004  0.00  0.00    +0.000 A 
ATOM      2  C   UNL     1      -5.054   2.779   9.116  0.00  0.00    +0.000 A 
ATOM      3  C   UNL     1      -4.673   4.052   8.744  0.00  0.00    +0.000 A 
ATOM      4  C   UNL     1      -3.392   4.285   8.259  0.00  0.00    +0.000 A 
ATOM      5  C   UNL     1      -2.491   3.217   8.152  0.00  0.00    +0.000 A 
ATOM      6  C   UNL     1      -2.893   1.940   8.524  0.00  0.00    +0.000 A 
ENDROOT
BRANCH   1   8
ATOM      7  C   UNL     1      -3.733  -0.439   9.977  0.00  0.00    +0.000 C 
ATOM      8  O   UNL     1      -4.618   0.479   9.387  0.00  0.00    +0.000 OA
ENDBRANCH   1   8
BRANCH   4   9
ATOM      9  C   UNL     1      -2.973   5.673   7.852  0.00  0.00    +0.000 C 
ATOM     10  O   UNL     1      -2.302   6.339   8.609  0.00  0.00    +0.000 OA
BRANCH   9  11
ATOM     11  C   UNL     1      -3.393   6.228   6.549  0.00  0.00    +0.000 A 
ATOM     12  C   UNL     1      -2.693   5.918   5.390  0.00  0.00    +0.000 A 
ATOM     13  C   UNL     1      -3.093   6.458   4.176  0.00  0.00    +0.000 A 
ATOM     14  C   UNL     1      -4.201   7.300   4.119  0.00  0.00    +0.000 A 
ATOM     15  C   UNL     1      -4.894   7.622   5.280  0.00  0.00    +0.000 A 
ATOM     16  C   UNL     1      -4.482   7.094   6.506  0.00  0.00    +0.000 A 
ENDBRANCH   9  11
ENDBRANCH   4   9
BRANCH   5  17
ATOM     17  O   UNL     1      -1.232   3.438   7.680  0.00  0.00    +0.000 OA
ATOM     18  H   UNL     1      -0.485   2.857   7.971  0.00  0.00    +0.000 HD
ENDBRANCH   5  17
TORSDOF 4
ENDMDL
MODEL 5
REMARK VINA RESULT:      -3.3      7.846      8.717
REMARK  Name = ox2_shuffle_ligand
REMARK  5 active torsions:
REMARK  status: ('A' for Active; 'I' for Inactive)
REMARK    1  A    between atoms: C_1  and  O_2
REMARK    2  A    between atoms: O_2  and  C_3
REMARK    3  A    between atoms: C_6  and  C_7
REMARK    4  A    between atoms: C_7  and  C_9
REMARK    5  A    between atoms: C_15  and  O_16
REMARK                            x       y       z     vdW  Elec       q    Type
REMARK                         _______ _______ _______ _____ _____    ______ ____
ROOT
ATOM      1  C   UNL     1      -2.953   1.562  10.146  0.00  0.00    +0.000 A 
ATOM      2  C   UNL     1      -2.333   2.715  10.601  0.00  0.00    +0.000 A 
ATOM      3  C   UNL     1      -1.930   3.690   9.713  0.00  0.00    +0.000 A 
ATOM      4  C   UNL     1      -2.134   3.524   8.349  0.00  0.00    +0.000 A 
ATOM      5  C   UNL     1      -2.752   2.355   7.883  0.00  0.00    +0.000 A 
ATOM      6  C   UNL     1      -3.159   1.385   8.791  0.00  0.00    +0.000 A 
ENDROOT
BRANCH   1   8
ATOM      7  C   UNL     1      -3.298  -0.734  10.777  0.00  0.00    +0.000 C 
ATOM      8  O   UNL     1      -3.332   0.636  11.085  0.00  0.00    +0.000 OA
ENDBRANCH   1   8
BRANCH   4   9
ATOM      9  C   UNL     1      -1.694   4.587   7.378  0.00  0.00    +0.000 C 
ATOM     10  O   UNL     1      -0.519   4.702   7.110  0.00  0.00    +0.000 OA
BRANCH   9  11
ATOM     11  C   UNL     1      -2.685   5.498   6.770  0.00  0.00    +0.000 A 
ATOM     12  C   UNL     1      -2.562   5.895   5.444  0.00  0.00    +0.000 A 
ATOM     13  C   UNL     1      -3.494   6.761   4.892  0.00  0.00    +0.000 A 
ATOM     14  C   UNL     1      -4.558   7.223   5.664  0.00  0.00    +0.000 A 
ATOM     15  C   UNL     1      -4.675   6.839   6.994  0.00  0.00    +0.000 A 
ATOM     16  C   UNL     1      -3.728   5.981   7.557  0.00  0.00    +0.000 A 
ENDBRANCH   9  11
ENDBRANCH   4   9
BRANCH   5  17
ATOM     17  O   UNL     1      -2.953   2.183   6.547  0.00  0.00    +0.000 OA
ATOM     18  H   UNL     1      -3.379   2.900   6.014  0.00  0.00    +0.000 HD
ENDBRANCH   5  17
TORSDOF 4
ENDMDL
MODEL 6
REMARK VINA RESULT:      -3.2      9.139     11.527
REMARK  Name = ox2_shuffle_ligand
REMARK  5 active torsions:
REMARK  status: ('A' for Active; 'I' for Inactive)
REMARK    1  A    between atoms: C_1  and  O_2
REMARK    2  A    between atoms: O_2  and  C_3
REMARK    3  A    between atoms: C_6  and  C_7
REMARK    4  A    between atoms: C_7  and  C_9
REMARK    5  A    between atoms: C_15  and  O_16
REMARK                            x       y       z     vdW  Elec       q    Type
REMARK                         _______ _______ _______ _____ _____    ______ ____
ROOT
ATOM      1  C   UNL     1      -2.633   5.310   6.754  0.00  0.00    +0.000 A 
ATOM      2  C   UNL     1      -3.581   5.767   7.656  0.00  0.00    +0.000 A 
ATOM      3  C   UNL     1      -4.219   4.889   8.507  0.00  0.00    +0.000 A 
ATOM      4  C   UNL     1      -3.923   3.532   8.464  0.00  0.00    +0.000 A 
ATOM      5  C   UNL     1      -2.971   3.064   7.547  0.00  0.00    +0.000 A 
ATOM      6  C   UNL     1      -2.333   3.962   6.702  0.00  0.00    +0.000 A 
ENDROOT
BRANCH   1   8
ATOM      7  C   UNL     1      -2.807   6.987   5.038  0.00  0.00    +0.000 C 
ATOM      8  O   UNL     1      -2.034   6.240   5.942  0.00  0.00    +0.000 OA
ENDBRANCH   1   8
BRANCH   4   9
ATOM      9  C   UNL     1      -4.619   2.571   9.390  0.00  0.00    +0.000 C 
ATOM     10  O   UNL     1      -4.009   2.091  10.321  0.00  0.00    +0.000 OA
BRANCH   9  11
ATOM     11  C   UNL     1      -6.029   2.197   9.157  0.00  0.00    +0.000 A 
ATOM     12  C   UNL     1      -6.348   1.005   8.518  0.00  0.00    +0.000 A 
ATOM     13  C   UNL     1      -7.677   0.676   8.295  0.00  0.00    +0.000 A 
ATOM     14  C   UNL     1      -8.689   1.534   8.720  0.00  0.00    +0.000 A 
ATOM     15  C   UNL     1      -8.371   2.733   9.346  0.00  0.00    +0.000 A 
ATOM     16  C   UNL     1      -7.033   3.075   9.556  0.00  0.00    +0.000 A 
ENDBRANCH   9  11
ENDBRANCH   4   9
BRANCH   5  17
ATOM     17  O   UNL     1      -2.678   1.734   7.496  0.00  0.00    +0.000 OA
ATOM     18  H   UNL     1      -2.657   1.200   8.329  0.00  0.00    +0.000 HD
ENDBRANCH   5  17
TORSDOF 4
ENDMDL
MODEL 7
REMARK VINA RESULT:      -3.1      6.602      7.959
REMARK  Name = ox2_shuffle_ligand
REMARK  5 active torsions:
REMARK  status: ('A' for Active; 'I' for Inactive)
REMARK    1  A    between atoms: C_1  and  O_2
REMARK    2  A    between atoms: O_2  and  C_3
REMARK    3  A    between atoms: C_6  and  C_7
REMARK    4  A    between atoms: C_7  and  C_9
REMARK    5  A    between atoms: C_15  and  O_16
REMARK                            x       y       z     vdW  Elec       q    Type
REMARK                         _______ _______ _______ _____ _____    ______ ____
ROOT
ATOM      1  C   UNL     1      -2.735   1.720   9.967  0.00  0.00    +0.000 A 
ATOM      2  C   UNL     1      -2.365   2.962  10.458  0.00  0.00    +0.000 A 
ATOM      3  C   UNL     1      -2.195   4.031   9.602  0.00  0.00    +0.000 A 
ATOM      4  C   UNL     1      -2.386   3.872   8.236  0.00  0.00    +0.000 A 
ATOM      5  C   UNL     1      -2.751   2.615   7.733  0.00  0.00    +0.000 A 
ATOM      6  C   UNL     1      -2.925   1.550   8.608  0.00  0.00    +0.000 A 
ENDROOT
BRANCH   1   8
ATOM      7  C   UNL     1      -3.685  -0.411  10.555  0.00  0.00    +0.000 C 
ATOM      8  O   UNL     1      -2.891   0.703  10.875  0.00  0.00    +0.000 OA
ENDBRANCH   1   8
BRANCH   4   9
ATOM      9  C   UNL     1      -2.200   5.036   7.300  0.00  0.00    +0.000 C 
ATOM     10  O   UNL     1      -3.156   5.482   6.704  0.00  0.00    +0.000 OA
BRANCH   9  11
ATOM     11  C   UNL     1      -0.859   5.619   7.091  0.00  0.00    +0.000 A 
ATOM     12  C   UNL     1       0.285   4.884   7.378  0.00  0.00    +0.000 A 
ATOM     13  C   UNL     1       1.536   5.450   7.188  0.00  0.00    +0.000 A 
ATOM     14  C   UNL     1       1.646   6.751   6.701  0.00  0.00    +0.000 A 
ATOM     15  C   UNL     1       0.503   7.493   6.427  0.00  0.00    +0.000 A 
ATOM     16  C   UNL     1      -0.758   6.931   6.634  0.00  0.00    +0.000 A 
ENDBRANCH   9  11
ENDBRANCH   4   9
BRANCH   5  17
ATOM     17  O   UNL     1      -2.936   2.449   6.394  0.00  0.00    +0.000 OA
ATOM     18  H   UNL     1      -3.759   2.791   5.962  0.00  0.00    +0.000 HD
ENDBRANCH   5  17
TORSDOF 4
ENDMDL
MODEL 8
REMARK VINA RESULT:      -3.1      7.559     10.065
REMARK  Name = ox2_shuffle_ligand
REMARK  5 active torsions:
REMARK  status: ('A' for Active; 'I' for Inactive)
REMARK    1  A    between atoms: C_1  and  O_2
REMARK    2  A    between atoms: O_2  and  C_3
REMARK    3  A    between atoms: C_6  and  C_7
REMARK    4  A    between atoms: C_7  and  C_9
REMARK    5  A    between atoms: C_15  and  O_16
REMARK                            x       y       z     vdW  Elec       q    Type
REMARK                         _______ _______ _______ _____ _____    ______ ____
ROOT
ATOM      1  C   UNL     1      -0.814   6.187   7.133  0.00  0.00    +0.000 A 
ATOM      2  C   UNL     1      -1.798   5.729   6.270  0.00  0.00    +0.000 A 
ATOM      3  C   UNL     1      -2.541   4.611   6.587  0.00  0.00    +0.000 A 
ATOM      4  C   UNL     1      -2.307   3.926   7.772  0.00  0.00    +0.000 A 
ATOM      5  C   UNL     1      -1.307   4.381   8.644  0.00  0.00    +0.000 A 
ATOM      6  C   UNL     1      -0.571   5.512   8.314  0.00  0.00    +0.000 A 
ENDROOT
BRANCH   1   8
ATOM      7  C   UNL     1       0.924   7.794   7.565  0.00  0.00    +0.000 C 
ATOM      8  O   UNL     1      -0.117   7.308   6.757  0.00  0.00    +0.000 OA
ENDBRANCH   1   8
BRANCH   4   9
ATOM      9  C   UNL     1      -3.116   2.706   8.120  0.00  0.00    +0.000 C 
ATOM     10  O   UNL     1      -2.600   1.612   8.068  0.00  0.00    +0.000 OA
BRANCH   9  11
ATOM     11  C   UNL     1      -4.537   2.837   8.503  0.00  0.00    +0.000 A 
ATOM     12  C   UNL     1      -5.059   4.070   8.875  0.00  0.00    +0.000 A 
ATOM     13  C   UNL     1      -6.392   4.174   9.243  0.00  0.00    +0.000 A 
ATOM     14  C   UNL     1      -7.208   3.045   9.231  0.00  0.00    +0.000 A 
ATOM     15  C   UNL     1      -6.685   1.808   8.873  0.00  0.00    +0.000 A 
ATOM     16  C   UNL     1      -5.339   1.698   8.519  0.00  0.00    +0.000 A 
ENDBRANCH   9  11
ENDBRANCH   4   9
BRANCH   5  17
ATOM     17  O   UNL     1      -1.068   3.713   9.807  0.00  0.00    +0.000 OA
ATOM     18  H   UNL     1      -0.654   2.814   9.786  0.00  0.00    +0.000 HD
ENDBRANCH   5  17
TORSDOF 4
ENDMDL
MODEL 9
REMARK VINA RESULT:      -3.1      7.853      8.824
REMARK  Name = ox2_shuffle_ligand
REMARK  5 active torsions:
REMARK  status: ('A' for Active; 'I' for Inactive)
REMARK    1  A    between atoms: C_1  and  O_2
REMARK    2  A    between atoms: O_2  and  C_3
REMARK    3  A    between atoms: C_6  and  C_7
REMARK    4  A    between atoms: C_7  and  C_9
REMARK    5  A    between atoms: C_15  and  O_16
REMARK                            x       y       z     vdW  Elec       q    Type
REMARK                         _______ _______ _______ _____ _____    ______ ____
ROOT
ATOM      1  C   UNL     1      -2.832   1.804   9.661  0.00  0.00    +0.000 A 
ATOM      2  C   UNL     1      -3.173   1.763   8.319  0.00  0.00    +0.000 A 
ATOM      3  C   UNL     1      -2.815   2.792   7.473  0.00  0.00    +0.000 A 
ATOM      4  C   UNL     1      -2.114   3.887   7.960  0.00  0.00    +0.000 A 
ATOM      5  C   UNL     1      -1.774   3.938   9.320  0.00  0.00    +0.000 A 
ATOM      6  C   UNL     1      -2.136   2.890  10.157  0.00  0.00    +0.000 A 
ENDROOT
BRANCH   1   8
ATOM      7  C   UNL     1      -4.233  -0.121  10.007  0.00  0.00    +0.000 C 
ATOM      8  O   UNL     1      -3.216   0.743  10.443  0.00  0.00    +0.000 OA
ENDBRANCH   1   8
BRANCH   4   9
ATOM      9  C   UNL     1      -1.722   5.012   7.040  0.00  0.00    +0.000 C 
ATOM     10  O   UNL     1      -0.550   5.265   6.871  0.00  0.00    +0.000 OA
BRANCH   9  11
ATOM     11  C   UNL     1      -2.759   5.818   6.363  0.00  0.00    +0.000 A 
ATOM     12  C   UNL     1      -3.781   6.412   7.093  0.00  0.00    +0.000 A 
ATOM     13  C   UNL     1      -4.754   7.155   6.441  0.00  0.00    +0.000 A 
ATOM     14  C   UNL     1      -4.701   7.313   5.058  0.00  0.00    +0.000 A 
ATOM     15  C   UNL     1      -3.687   6.706   4.324  0.00  0.00    +0.000 A 
ATOM     16  C   UNL     1      -2.716   5.944   4.977  0.00  0.00    +0.000 A 
ENDBRANCH   9  11
ENDBRANCH   4   9
BRANCH   5  17
ATOM     17  O   UNL     1      -1.089   5.010   9.807  0.00  0.00    +0.000 OA
ATOM     18  H   UNL     1      -0.241   5.291   9.380  0.00  0.00    +0.000 HD
ENDBRANCH   5  17
TORSDOF 4
ENDMDL
