REMARK  Name = ox2_orig_f8_ligand
REMARK  5 active torsions:
REMARK  status: ('A' for Active; 'I' for Inactive)
REMARK    1  A    between atoms: C_1  and  O_2
REMARK    2  A    between atoms: O_2  and  C_3
REMARK    3  A    between atoms: C_6  and  C_7
REMARK    4  A    between atoms: C_7  and  C_9
REMARK    5  A    between atoms: C_15  and  O_16
REMARK                            x       y       z     vdW  Elec       q    Type
REMARK                         _______ _______ _______ _____ _____    ______ ____
ROOT
ATOM      1  C   UNL     1       2.493  -0.391  -8.015  0.00  0.00    +0.000 A 
ATOM      2  C   UNL     1       3.479   0.407  -8.558  0.00  0.00    +0.000 A 
ATOM      3  C   UNL     1       3.624   1.712  -8.146  0.00  0.00    +0.000 A 
ATOM      4  C   UNL     1       2.776   2.231  -7.198  0.00  0.00    +0.000 A 
ATOM      5  C   UNL     1       1.788   1.429  -6.632  0.00  0.00    +0.000 A 
ATOM      6  C   UNL     1       1.655   0.124  -7.050  0.00  0.00    +0.000 A 
ENDROOT
BRANCH   1   8
ATOM      7  C   UNL     1       1.440  -2.531  -7.952  0.00  0.00    +0.000 C 
ATOM      8  O   UNL     1       2.408  -1.668  -8.473  0.00  0.00    +0.000 OA
ENDBRANCH   1   8
BRANCH   4   9
ATOM      9  C   UNL     1       2.954   3.625  -6.776  0.00  0.00    +0.000 C 
ATOM     10  O   UNL     1       2.909   3.814  -5.684  0.00  0.00    +0.000 OA
BRANCH   9  11
ATOM     11  C   UNL     1       3.331   4.772  -7.562  0.00  0.00    +0.000 A 
ATOM     12  C   UNL     1       2.873   4.912  -8.842  0.00  0.00    +0.000 A 
ATOM     13  C   UNL     1       3.224   6.013  -9.591  0.00  0.00    +0.000 A 
ATOM     14  C   UNL     1       4.052   6.976  -9.064  0.00  0.00    +0.000 A 
ATOM     15  C   UNL     1       4.499   6.851  -7.766  0.00  0.00    +0.000 A 
ATOM     16  C   UNL     1       4.133   5.753  -7.001  0.00  0.00    +0.000 A 
ENDBRANCH   9  11
ENDBRANCH   4   9
BRANCH   5  17
ATOM     17  O   UNL     1       0.979   1.929  -5.685  0.00  0.00    +0.000 OA
ATOM     18  H   UNL     1       0.277   1.359  -5.282  0.00  0.00    +0.000 HD
ENDBRANCH   5  17
TORSDOF 4
