MODEL 1
REMARK VINA RESULT:      -4.6      0.000      0.000
REMARK  Name = ox2_orig_f8_ligand
REMARK  5 active torsions:
REMARK  status: ('A' for Active; 'I' for Inactive)
REMARK    1  A    between atoms: C_1  and  O_2
REMARK    2  A    between atoms: O_2  and  C_3
REMARK    3  A    between atoms: C_6  and  C_7
REMARK    4  A    between atoms: C_7  and  C_9
REMARK    5  A    between atoms: C_15  and  O_16
REMARK                            x       y       z     vdW  Elec       q    Type
REMARK                         _______ _______ _______ _____ _____    ______ ____
ROOT
ATOM      1  C   UNL     1       2.714   3.194  -5.017  0.00  0.00    +0.000 A 
ATOM      2  C   UNL     1       3.600   3.172  -6.074  0.00  0.00    +0.000 A 
ATOM      3  C   UNL     1       3.526   2.179  -7.024  0.00  0.00    +0.000 A 
ATOM      4  C   UNL     1       2.574   1.195  -6.916  0.00  0.00    +0.000 A 
ATOM      5  C   UNL     1       1.665   1.217  -5.861  0.00  0.00    +0.000 A 
ATOM      6  C   UNL     1       1.747   2.218  -4.919  0.00  0.00    +0.000 A 
ENDROOT
BRANCH   1   8
ATOM      7  C   UNL     1       3.154   5.494  -4.558  0.00  0.00    +0.000 C 
ATOM      8  O   UNL     1       2.850   4.203  -4.116  0.00  0.00    +0.000 OA
ENDBRANCH   1   8
BRANCH   4   9
ATOM      9  C   UNL     1       2.516   0.149  -7.943  0.00  0.00    +0.000 C 
ATOM     10  O   UNL     1       2.501  -0.897  -7.575  0.00  0.00    +0.000 OA
BRANCH   9  11
ATOM     11  C   UNL     1       2.324   0.281  -9.365  0.00  0.00    +0.000 A 
ATOM     12  C   UNL     1       1.135   0.737  -9.861  0.00  0.00    +0.000 A 
ATOM     13  C   UNL     1       0.953   0.873 -11.219  0.00  0.00    +0.000 A 
ATOM     14  C   UNL     1       1.961   0.537 -12.092  0.00  0.00    +0.000 A 
ATOM     15  C   UNL     1       3.170   0.098 -11.596  0.00  0.00    +0.000 A 
ATOM     16  C   UNL     1       3.365  -0.023 -10.228  0.00  0.00    +0.000 A 
ENDBRANCH   9  11
ENDBRANCH   4   9
BRANCH   5  17
ATOM     17  O   UNL     1       0.717   0.271  -5.772  0.00  0.00    +0.000 OA
ATOM     18  H   UNL     1       0.964  -0.685  -5.841  0.00  0.00    +0.000 HD
ENDBRANCH   5  17
TORSDOF 4
ENDMDL
MODEL 2
REMARK VINA RESULT:      -4.5      1.499      2.121
REMARK  Name = ox2_orig_f8_ligand
REMARK  5 active torsions:
REMARK  status: ('A' for Active; 'I' for Inactive)
REMARK    1  A    between atoms: C_1  and  O_2
REMARK    2  A    between atoms: O_2  and  C_3
REMARK    3  A    between atoms: C_6  and  C_7
REMARK    4  A    between atoms: C_7  and  C_9
REMARK    5  A    between atoms: C_15  and  O_16
REMARK                            x       y       z     vdW  Elec       q    Type
REMARK                         _______ _______ _______ _____ _____    ______ ____
ROOT
ATOM      1  C   UNL     1       2.523   4.821  -4.407  0.00  0.00    +0.000 A 
ATOM      2  C   UNL     1       3.372   3.762  -4.652  0.00  0.00    +0.000 A 
ATOM      3  C   UNL     1       2.935   2.670  -5.366  0.00  0.00    +0.000 A 
ATOM      4  C   UNL     1       1.642   2.624  -5.829  0.00  0.00    +0.000 A 
ATOM      5  C   UNL     1       0.782   3.696  -5.601  0.00  0.00    +0.000 A 
ATOM      6  C   UNL     1       1.232   4.784  -4.888  0.00  0.00    +0.000 A 
ENDROOT
BRANCH   1   8
ATOM      7  C   UNL     1       4.213   6.476  -4.096  0.00  0.00    +0.000 C 
ATOM      8  O   UNL     1       3.023   5.864  -3.693  0.00  0.00    +0.000 OA
ENDBRANCH   1   8
BRANCH   4   9
ATOM      9  C   UNL     1       1.203   1.448  -6.589  0.00  0.00    +0.000 C 
ATOM     10  O   UNL     1       0.627   0.688  -6.022  0.00  0.00    +0.000 OA
BRANCH   9  11
ATOM     11  C   UNL     1       1.278   1.201  -8.006  0.00  0.00    +0.000 A 
ATOM     12  C   UNL     1       0.217   1.494  -8.815  0.00  0.00    +0.000 A 
ATOM     13  C   UNL     1       0.291   1.268 -10.171  0.00  0.00    +0.000 A 
ATOM     14  C   UNL     1       1.430   0.730 -10.724  0.00  0.00    +0.000 A 
ATOM     15  C   UNL     1       2.511   0.453  -9.916  0.00  0.00    +0.000 A 
ATOM     16  C   UNL     1       2.448   0.697  -8.552  0.00  0.00    +0.000 A 
ENDBRANCH   9  11
ENDBRANCH   4   9
BRANCH   5  17
ATOM     17  O   UNL     1      -0.472   3.663  -6.079  0.00  0.00    +0.000 OA
ATOM     18  H   UNL     1      -0.705   4.173  -6.895  0.00  0.00    +0.000 HD
ENDBRANCH   5  17
TORSDOF 4
ENDMDL
MODEL 3
REMARK VINA RESULT:      -4.3      3.351      4.684
REMARK  Name = ox2_orig_f8_ligand
REMARK  5 active torsions:
REMARK  status: ('A' for Active; 'I' for Inactive)
REMARK    1  A    between atoms: C_1  and  O_2
REMARK    2  A    between atoms: O_2  and  C_3
REMARK    3  A    between atoms: C_6  and  C_7
REMARK    4  A    between atoms: C_7  and  C_9
REMARK    5  A    between atoms: C_15  and  O_16
REMARK                            x       y       z     vdW  Elec       q    Type
REMARK                         _______ _______ _______ _____ _____    ______ ____
ROOT
ATOM      1  C   UNL     1       1.040   1.119  -7.157  0.00  0.00    +0.000 A 
ATOM      2  C   UNL     1       1.519   0.642  -8.360  0.00  0.00    +0.000 A 
ATOM      3  C   UNL     1       2.555  -0.264  -8.386  0.00  0.00    +0.000 A 
ATOM      4  C   UNL     1       3.127  -0.688  -7.212  0.00  0.00    +0.000 A 
ATOM      5  C   UNL     1       2.640  -0.224  -5.992  0.00  0.00    +0.000 A 
ATOM      6  C   UNL     1       1.601   0.679  -5.978  0.00  0.00    +0.000 A 
ENDROOT
BRANCH   1   8
ATOM      7  C   UNL     1      -0.573   2.325  -8.437  0.00  0.00    +0.000 C 
ATOM      8  O   UNL     1       0.017   2.014  -7.209  0.00  0.00    +0.000 OA
ENDBRANCH   1   8
BRANCH   4   9
ATOM      9  C   UNL     1       4.229  -1.655  -7.269  0.00  0.00    +0.000 C 
ATOM     10  O   UNL     1       5.210  -1.299  -6.895  0.00  0.00    +0.000 OA
BRANCH   9  11
ATOM     11  C   UNL     1       4.192  -3.056  -7.602  0.00  0.00    +0.000 A 
ATOM     12  C   UNL     1       5.218  -3.626  -8.303  0.00  0.00    +0.000 A 
ATOM     13  C   UNL     1       5.189  -4.967  -8.612  0.00  0.00    +0.000 A 
ATOM     14  C   UNL     1       4.121  -5.745  -8.232  0.00  0.00    +0.000 A 
ATOM     15  C   UNL     1       3.095  -5.181  -7.506  0.00  0.00    +0.000 A 
ATOM     16  C   UNL     1       3.127  -3.834  -7.175  0.00  0.00    +0.000 A 
ENDBRANCH   9  11
ENDBRANCH   4   9
BRANCH   5  17
ATOM     17  O   UNL     1       3.180  -0.662  -4.844  0.00  0.00    +0.000 OA
ATOM     18  H   UNL     1       3.697  -0.041  -4.272  0.00  0.00    +0.000 HD
ENDBRANCH   5  17
TORSDOF 4
ENDMDL
MODEL 4
REMARK VINA RESULT:      -4.2      1.185      1.699
REMARK  Name = ox2_orig_f8_ligand
REMARK  5 active torsions:
REMARK  status: ('A' for Active; 'I' for Inactive)
REMARK    1  A    between atoms: C_1  and  O_2
REMARK    2  A    between atoms: O_2  and  C_3
REMARK    3  A    between atoms: C_6  and  C_7
REMARK    4  A    between atoms: C_7  and  C_9
REMARK    5  A    between atoms: C_15  and  O_16
REMARK                            x       y       z     vdW  Elec       q    Type
REMARK                         _______ _______ _______ _____ _____    ______ ____
ROOT
ATOM      1  C   UNL     1       2.168   3.524  -5.471  0.00  0.00    +0.000 A 
ATOM      2  C   UNL     1       2.389   3.941  -6.768  0.00  0.00    +0.000 A 
ATOM      3  C   UNL     1       2.071   3.121  -7.827  0.00  0.00    +0.000 A 
ATOM      4  C   UNL     1       1.542   1.875  -7.595  0.00  0.00    +0.000 A 
ATOM      5  C   UNL     1       1.299   1.451  -6.291  0.00  0.00    +0.000 A 
ATOM      6  C   UNL     1       1.618   2.281  -5.240  0.00  0.00    +0.000 A 
ENDROOT
BRANCH   1   8
ATOM      7  C   UNL     1       3.238   5.539  -4.776  0.00  0.00    +0.000 C 
ATOM      8  O   UNL     1       2.509   4.385  -4.477  0.00  0.00    +0.000 OA
ENDBRANCH   1   8
BRANCH   4   9
ATOM      9  C   UNL     1       1.211   1.022  -8.743  0.00  0.00    +0.000 C 
ATOM     10  O   UNL     1       0.139   0.764  -8.866  0.00  0.00    +0.000 OA
BRANCH   9  11
ATOM     11  C   UNL     1       2.054   0.590  -9.828  0.00  0.00    +0.000 A 
ATOM     12  C   UNL     1       3.299   0.086  -9.576  0.00  0.00    +0.000 A 
ATOM     13  C   UNL     1       4.102  -0.337 -10.612  0.00  0.00    +0.000 A 
ATOM     14  C   UNL     1       3.666  -0.242 -11.912  0.00  0.00    +0.000 A 
ATOM     15  C   UNL     1       2.402   0.245 -12.171  0.00  0.00    +0.000 A 
ATOM     16  C   UNL     1       1.582   0.655 -11.129  0.00  0.00    +0.000 A 
ENDBRANCH   9  11
ENDBRANCH   4   9
BRANCH   5  17
ATOM     17  O   UNL     1       0.755   0.244  -6.068  0.00  0.00    +0.000 OA
ATOM     18  H   UNL     1       0.745  -0.435  -6.788  0.00  0.00    +0.000 HD
ENDBRANCH   5  17
TORSDOF 4
ENDMDL
MODEL 5
REMARK VINA RESULT:      -4.2      2.411      5.451
REMARK  Name = ox2_orig_f8_ligand
REMARK  5 active torsions:
REMARK  status: ('A' for Active; 'I' for Inactive)
REMARK    1  A    between atoms: C_1  and  O_2
REMARK    2  A    between atoms: O_2  and  C_3
REMARK    3  A    between atoms: C_6  and  C_7
REMARK    4  A    between atoms: C_7  and  C_9
REMARK    5  A    between atoms: C_15  and  O_16
REMARK                            x       y       z     vdW  Elec       q    Type
REMARK                         _______ _______ _______ _____ _____    ______ ____
ROOT
ATOM      1  C   UNL     1      -0.058   1.634  -9.455  0.00  0.00    +0.000 A 
ATOM      2  C   UNL     1       0.757   0.534  -9.287  0.00  0.00    +0.000 A 
ATOM      3  C   UNL     1       1.364   0.295  -8.076  0.00  0.00    +0.000 A 
ATOM      4  C   UNL     1       1.169   1.161  -7.027  0.00  0.00    +0.000 A 
ATOM      5  C   UNL     1       0.335   2.266  -7.181  0.00  0.00    +0.000 A 
ATOM      6  C   UNL     1      -0.269   2.493  -8.397  0.00  0.00    +0.000 A 
ENDROOT
BRANCH   1   8
ATOM      7  C   UNL     1       0.009   1.288 -11.814  0.00  0.00    +0.000 C 
ATOM      8  O   UNL     1      -0.621   1.808 -10.680  0.00  0.00    +0.000 OA
ENDBRANCH   1   8
BRANCH   4   9
ATOM      9  C   UNL     1       1.827   0.881  -5.746  0.00  0.00    +0.000 C 
ATOM     10  O   UNL     1       1.161   0.584  -4.910  0.00  0.00    +0.000 OA
BRANCH   9  11
ATOM     11  C   UNL     1       3.233   0.787  -5.447  0.00  0.00    +0.000 A 
ATOM     12  C   UNL     1       3.871  -0.421  -5.504  0.00  0.00    +0.000 A 
ATOM     13  C   UNL     1       5.217  -0.511  -5.229  0.00  0.00    +0.000 A 
ATOM     14  C   UNL     1       5.931   0.611  -4.879  0.00  0.00    +0.000 A 
ATOM     15  C   UNL     1       5.298   1.835  -4.841  0.00  0.00    +0.000 A 
ATOM     16  C   UNL     1       3.946   1.934  -5.136  0.00  0.00    +0.000 A 
ENDBRANCH   9  11
ENDBRANCH   4   9
BRANCH   5  17
ATOM     17  O   UNL     1       0.123   3.095  -6.147  0.00  0.00    +0.000 OA
ATOM     18  H   UNL     1      -0.070   4.052  -6.312  0.00  0.00    +0.000 HD
ENDBRANCH   5  17
TORSDOF 4
ENDMDL
MODEL 6
REMARK VINA RESULT:      -4.2      2.144      5.801
REMARK  Name = ox2_orig_f8_ligand
REMARK  5 active torsions:
REMARK  status: ('A' for Active; 'I' for Inactive)
REMARK    1  A    between atoms: C_1  and  O_2
REMARK    2  A    between atoms: O_2  and  C_3
REMARK    3  A    between atoms: C_6  and  C_7
REMARK    4  A    between atoms: C_7  and  C_9
REMARK    5  A    between atoms: C_15  and  O_16
REMARK                            x       y       z     vdW  Elec       q    Type
REMARK                         _______ _______ _______ _____ _____    ______ ____
ROOT
ATOM      1  C   UNL     1       4.393  -1.244  -8.402  0.00  0.00    +0.000 A 
ATOM      2  C   UNL     1       3.573  -0.302  -8.990  0.00  0.00    +0.000 A 
ATOM      3  C   UNL     1       2.710   0.445  -8.223  0.00  0.00    +0.000 A 
ATOM      4  C   UNL     1       2.651   0.247  -6.865  0.00  0.00    +0.000 A 
ATOM      5  C   UNL     1       3.486  -0.689  -6.259  0.00  0.00    +0.000 A 
ATOM      6  C   UNL     1       4.348  -1.428  -7.037  0.00  0.00    +0.000 A 
ENDROOT
BRANCH   1   8
ATOM      7  C   UNL     1       5.715  -3.187  -8.815  0.00  0.00    +0.000 C 
ATOM      8  O   UNL     1       5.218  -1.946  -9.224  0.00  0.00    +0.000 OA
ENDBRANCH   1   8
BRANCH   4   9
ATOM      9  C   UNL     1       1.722   1.059  -6.070  0.00  0.00    +0.000 C 
ATOM     10  O   UNL     1       0.826   0.535  -5.680  0.00  0.00    +0.000 OA
BRANCH   9  11
ATOM     11  C   UNL     1       1.876   2.409  -5.591  0.00  0.00    +0.000 A 
ATOM     12  C   UNL     1       3.019   2.786  -4.944  0.00  0.00    +0.000 A 
ATOM     13  C   UNL     1       3.172   4.078  -4.494  0.00  0.00    +0.000 A 
ATOM     14  C   UNL     1       2.168   5.000  -4.677  0.00  0.00    +0.000 A 
ATOM     15  C   UNL     1       1.021   4.631  -5.348  0.00  0.00    +0.000 A 
ATOM     16  C   UNL     1       0.871   3.335  -5.820  0.00  0.00    +0.000 A 
ENDBRANCH   9  11
ENDBRANCH   4   9
BRANCH   5  17
ATOM     17  O   UNL     1       3.448  -0.861  -4.929  0.00  0.00    +0.000 OA
ATOM     18  H   UNL     1       2.599  -1.110  -4.486  0.00  0.00    +0.000 HD
ENDBRANCH   5  17
TORSDOF 4
ENDMDL
MODEL 7
REMARK VINA RESULT:      -4.2      2.011      3.409
REMARK  Name = ox2_orig_f8_ligand
REMARK  5 active torsions:
REMARK  status: ('A' for Active; 'I' for Inactive)
REMARK    1  A    between atoms: C_1  and  O_2
REMARK    2  A    between atoms: O_2  and  C_3
REMARK    3  A    between atoms: C_6  and  C_7
REMARK    4  A    between atoms: C_7  and  C_9
REMARK    5  A    between atoms: C_15  and  O_16
REMARK                            x       y       z     vdW  Elec       q    Type
REMARK                         _______ _______ _______ _____ _____    ______ ____
ROOT
ATOM      1  C   UNL     1       4.276   5.466  -4.553  0.00  0.00    +0.000 A 
ATOM      2  C   UNL     1       4.819   4.362  -5.178  0.00  0.00    +0.000 A 
ATOM      3  C   UNL     1       4.035   3.268  -5.464  0.00  0.00    +0.000 A 
ATOM      4  C   UNL     1       2.706   3.266  -5.115  0.00  0.00    +0.000 A 
ATOM      5  C   UNL     1       2.145   4.382  -4.499  0.00  0.00    +0.000 A 
ATOM      6  C   UNL     1       2.939   5.472  -4.221  0.00  0.00    +0.000 A 
ENDROOT
BRANCH   1   8
ATOM      7  C   UNL     1       6.305   6.290  -3.606  0.00  0.00    +0.000 C 
ATOM      8  O   UNL     1       5.112   6.508  -4.301  0.00  0.00    +0.000 OA
ENDBRANCH   1   8
BRANCH   4   9
ATOM      9  C   UNL     1       1.893   2.087  -5.433  0.00  0.00    +0.000 C 
ATOM     10  O   UNL     1       1.501   1.516  -4.566  0.00  0.00    +0.000 OA
BRANCH   9  11
ATOM     11  C   UNL     1       1.398   1.641  -6.710  0.00  0.00    +0.000 A 
ATOM     12  C   UNL     1       1.912   0.517  -7.294  0.00  0.00    +0.000 A 
ATOM     13  C   UNL     1       1.432   0.083  -8.510  0.00  0.00    +0.000 A 
ATOM     14  C   UNL     1       0.443   0.785  -9.157  0.00  0.00    +0.000 A 
ATOM     15  C   UNL     1      -0.094   1.907  -8.562  0.00  0.00    +0.000 A 
ATOM     16  C   UNL     1       0.372   2.337  -7.328  0.00  0.00    +0.000 A 
ENDBRANCH   9  11
ENDBRANCH   4   9
BRANCH   5  17
ATOM     17  O   UNL     1       0.840   4.389  -4.185  0.00  0.00    +0.000 OA
ATOM     18  H   UNL     1       0.504   3.816  -3.451  0.00  0.00    +0.000 HD
ENDBRANCH   5  17
TORSDOF 4
ENDMDL
MODEL 8
REMARK VINA RESULT:      -4.2      2.342      3.094
REMARK  Name = ox2_orig_f8_ligand
REMARK  5 active torsions:
REMARK  status: ('A' for Active; 'I' for Inactive)
REMARK    1  A    between atoms: C_1  and  O_2
REMARK    2  A    between atoms: O_2  and  C_3
REMARK    3  A    between atoms: C_6  and  C_7
REMARK    4  A    between atoms: C_7  and  C_9
REMARK    5  A    between atoms: C_15  and  O_16
REMARK                            x       y       z     vdW  Elec       q    Type
REMARK                         _______ _______ _______ _____ _____    ______ ____
ROOT
ATOM      1  C   UNL     1       5.534   2.123  -4.954  0.00  0.00    +0.000 A 
ATOM      2  C   UNL     1       4.651   3.064  -5.441  0.00  0.00    +0.000 A 
ATOM      3  C   UNL     1       3.384   2.693  -5.830  0.00  0.00    +0.000 A 
ATOM      4  C   UNL     1       2.997   1.378  -5.747  0.00  0.00    +0.000 A 
ATOM      5  C   UNL     1       3.876   0.423  -5.241  0.00  0.00    +0.000 A 
ATOM      6  C   UNL     1       5.140   0.806  -4.852  0.00  0.00    +0.000 A 
ENDROOT
BRANCH   1   8
ATOM      7  C   UNL     1       7.615   1.729  -3.854  0.00  0.00    +0.000 C 
ATOM      8  O   UNL     1       6.769   2.562  -4.593  0.00  0.00    +0.000 OA
ENDBRANCH   1   8
BRANCH   4   9
ATOM      9  C   UNL     1       1.640   1.011  -6.167  0.00  0.00    +0.000 C 
ATOM     10  O   UNL     1       0.970   0.624  -5.372  0.00  0.00    +0.000 OA
BRANCH   9  11
ATOM     11  C   UNL     1       0.993   1.221  -7.437  0.00  0.00    +0.000 A 
ATOM     12  C   UNL     1       0.013   2.164  -7.565  0.00  0.00    +0.000 A 
ATOM     13  C   UNL     1      -0.599   2.373  -8.781  0.00  0.00    +0.000 A 
ATOM     14  C   UNL     1      -0.241   1.623  -9.876  0.00  0.00    +0.000 A 
ATOM     15  C   UNL     1       0.763   0.685  -9.758  0.00  0.00    +0.000 A 
ATOM     16  C   UNL     1       1.395   0.484  -8.540  0.00  0.00    +0.000 A 
ENDBRANCH   9  11
ENDBRANCH   4   9
BRANCH   5  17
ATOM     17  O   UNL     1       3.486  -0.857  -5.133  0.00  0.00    +0.000 OA
ATOM     18  H   UNL     1       3.489  -1.302  -4.249  0.00  0.00    +0.000 HD
ENDBRANCH   5  17
TORSDOF 4
ENDMDL
MODEL 9
REMARK VINA RESULT:      -4.0      2.724      3.801
REMARK  Name = ox2_orig_f8_ligand
REMARK  5 active torsions:
REMARK  status: ('A' for Active; 'I' for Inactive)
REMARK    1  A    between atoms: C_1  and  O_2
REMARK    2  A    between atoms: O_2  and  C_3
REMARK    3  A    between atoms: C_6  and  C_7
REMARK    4  A    between atoms: C_7  and  C_9
REMARK    5  A    between atoms: C_15  and  O_16
REMARK                            x       y       z     vdW  Elec       q    Type
REMARK                         _______ _______ _______ _____ _____    ______ ____
ROOT
ATOM      1  C   UNL     1       1.018   5.092  -6.384  0.00  0.00    +0.000 A 
ATOM      2  C   UNL     1       2.062   4.784  -5.536  0.00  0.00    +0.000 A 
ATOM      3  C   UNL     1       2.356   3.472  -5.240  0.00  0.00    +0.000 A 
ATOM      4  C   UNL     1       1.599   2.461  -5.781  0.00  0.00    +0.000 A 
ATOM      5  C   UNL     1       0.554   2.760  -6.651  0.00  0.00    +0.000 A 
ATOM      6  C   UNL     1       0.272   4.076  -6.942  0.00  0.00    +0.000 A 
ENDROOT
BRANCH   1   8
ATOM      7  C   UNL     1      -0.253   6.786  -7.484  0.00  0.00    +0.000 C 
ATOM      8  O   UNL     1       0.786   6.409  -6.627  0.00  0.00    +0.000 OA
ENDBRANCH   1   8
BRANCH   4   9
ATOM      9  C   UNL     1       1.935   1.072  -5.450  0.00  0.00    +0.000 C 
ATOM     10  O   UNL     1       1.290   0.581  -4.693  0.00  0.00    +0.000 OA
BRANCH   9  11
ATOM     11  C   UNL     1       2.891   0.193  -6.075  0.00  0.00    +0.000 A 
ATOM     12  C   UNL     1       4.116  -0.012  -5.504  0.00  0.00    +0.000 A 
ATOM     13  C   UNL     1       5.026  -0.859  -6.095  0.00  0.00    +0.000 A 
ATOM     14  C   UNL     1       4.719  -1.496  -7.274  0.00  0.00    +0.000 A 
ATOM     15  C   UNL     1       3.477  -1.310  -7.843  0.00  0.00    +0.000 A 
ATOM     16  C   UNL     1       2.549  -0.472  -7.241  0.00  0.00    +0.000 A 
ENDBRANCH   9  11
ENDBRANCH   4   9
BRANCH   5  17
ATOM     17  O   UNL     1      -0.166   1.770  -7.201  0.00  0.00    +0.000 OA
ATOM     18  H   UNL     1      -0.216   0.888  -6.755  0.00  0.00    +0.000 HD
ENDBRANCH   5  17
TORSDOF 4
ENDMDL
