MODEL 1
REMARK VINA RESULT:      -4.2      0.000      0.000
REMARK  Name = bg33_3_ligand
REMARK  12 active torsions:
REMARK  status: ('A' for Active; 'I' for Inactive)
REMARK    1  A    between atoms: C_1  and  C_2
REMARK    2  A    between atoms: C_2  and  C_3
REMARK    3  A    between atoms: C_3  and  C_4
REMARK    4  A    between atoms: C_4  and  C_5
REMARK    5  A    between atoms: C_5  and  C_6
REMARK    6  A    between atoms: C_5  and  O_8
REMARK    7  A    between atoms: C_6  and  C_7
REMARK    8  A    between atoms: O_8  and  C_9
REMARK    9  A    between atoms: C_9  and  C_11
REMARK   10  A    between atoms: C_12  and  C_13
REMARK   11  A    between atoms: C_16  and  O_17
REMARK   12  A    between atoms: O_17  and  C_18
REMARK                            x       y       z     vdW  Elec       q    Type
REMARK                         _______ _______ _______ _____ _____    ______ ____
ROOT
ATOM      1  C   UNL     1       5.282  -2.183  -2.603  0.00  0.00    +0.000 C 
ATOM      2  O   UNL     1       4.353  -2.602  -3.253  0.00  0.00    +0.000 OA
ENDROOT
BRANCH   1   3
ATOM      3  C   UNL     1       5.480  -2.574  -1.100  0.00  0.00    +0.000 C 
ATOM      4  C   UNL     1       6.642  -3.157  -0.727  0.00  0.00    +0.000 C 
BRANCH   4   5
ATOM      5  C   UNL     1       6.862  -3.635   0.614  0.00  0.00    +0.000 A 
ATOM      6  C   UNL     1       6.164  -4.714   1.111  0.00  0.00    +0.000 A 
ATOM      7  C   UNL     1       6.388  -5.211   2.344  0.00  0.00    +0.000 A 
ATOM      8  C   UNL     1       7.348  -4.609   3.125  0.00  0.00    +0.000 A 
ATOM      9  C   UNL     1       8.031  -3.520   2.680  0.00  0.00    +0.000 A 
ATOM     10  C   UNL     1       7.790  -3.037   1.411  0.00  0.00    +0.000 A 
BRANCH   8  11
ATOM     11  O   UNL     1       7.606  -5.021   4.384  0.00  0.00    +0.000 OA
ATOM     12  C   UNL     1       7.702  -3.997   5.359  0.00  0.00    +0.000 C 
ENDBRANCH   8  11
ENDBRANCH   4   5
ENDBRANCH   1   3
BRANCH   1  13
ATOM     13  O   UNL     1       6.081  -1.389  -3.178  0.00  0.00    +0.000 OA
BRANCH  13  14
ATOM     14  C   UNL     1       6.138  -0.014  -2.681  0.00  0.00    +0.000 C 
BRANCH  14  15
ATOM     15  C   UNL     1       5.643   0.876  -3.723  0.00  0.00    +0.000 C 
ATOM     16  C   UNL     1       5.635   2.320  -3.321  0.00  0.00    +0.000 C 
ENDBRANCH  14  15
BRANCH  14  17
ATOM     17  C   UNL     1       7.558   0.364  -2.303  0.00  0.00    +0.000 C 
BRANCH  17  18
ATOM     18  C   UNL     1       7.622   0.456  -0.762  0.00  0.00    +0.000 C 
BRANCH  18  20
ATOM     19  C   UNL     1       6.206   2.051   0.481  0.00  0.00    +0.000 C 
ATOM     20  C   UNL     1       6.277   0.636  -0.133  0.00  0.00    +0.000 C 
ENDBRANCH  18  20
ENDBRANCH  17  18
ENDBRANCH  14  17
ENDBRANCH  13  14
ENDBRANCH   1  13
TORSDOF 9
ENDMDL
MODEL 2
REMARK VINA RESULT:      -4.1      1.930      7.281
REMARK  Name = bg33_3_ligand
REMARK  12 active torsions:
REMARK  status: ('A' for Active; 'I' for Inactive)
REMARK    1  A    between atoms: C_1  and  C_2
REMARK    2  A    between atoms: C_2  and  C_3
REMARK    3  A    between atoms: C_3  and  C_4
REMARK    4  A    between atoms: C_4  and  C_5
REMARK    5  A    between atoms: C_5  and  C_6
REMARK    6  A    between atoms: C_5  and  O_8
REMARK    7  A    between atoms: C_6  and  C_7
REMARK    8  A    between atoms: O_8  and  C_9
REMARK    9  A    between atoms: C_9  and  C_11
REMARK   10  A    between atoms: C_12  and  C_13
REMARK   11  A    between atoms: C_16  and  O_17
REMARK   12  A    between atoms: O_17  and  C_18
REMARK                            x       y       z     vdW  Elec       q    Type
REMARK                         _______ _______ _______ _____ _____    ______ ____
ROOT
ATOM      1  C   UNL     1       8.188  -1.624   1.741  0.00  0.00    +0.000 C 
ATOM      2  O   UNL     1       8.074  -0.574   2.330  0.00  0.00    +0.000 OA
ENDROOT
BRANCH   1   3
ATOM      3  C   UNL     1       7.692  -1.800   0.267  0.00  0.00    +0.000 C 
ATOM      4  C   UNL     1       6.740  -0.963  -0.203  0.00  0.00    +0.000 C 
BRANCH   4   5
ATOM      5  C   UNL     1       6.161  -1.122  -1.513  0.00  0.00    +0.000 A 
ATOM      6  C   UNL     1       5.500  -2.277  -1.867  0.00  0.00    +0.000 A 
ATOM      7  C   UNL     1       4.907  -2.430  -3.067  0.00  0.00    +0.000 A 
ATOM      8  C   UNL     1       4.975  -1.389  -3.965  0.00  0.00    +0.000 A 
ATOM      9  C   UNL     1       5.650  -0.247  -3.663  0.00  0.00    +0.000 A 
ATOM     10  C   UNL     1       6.240  -0.112  -2.424  0.00  0.00    +0.000 A 
BRANCH   8  11
ATOM     11  O   UNL     1       4.441  -1.475  -5.202  0.00  0.00    +0.000 OA
ATOM     12  C   UNL     1       5.315  -1.931  -6.219  0.00  0.00    +0.000 C 
ENDBRANCH   8  11
ENDBRANCH   4   5
ENDBRANCH   1   3
BRANCH   1  13
ATOM     13  O   UNL     1       8.703  -2.590   2.374  0.00  0.00    +0.000 OA
BRANCH  13  14
ATOM     14  C   UNL     1       7.884  -3.237   3.399  0.00  0.00    +0.000 C 
BRANCH  14  15
ATOM     15  C   UNL     1       8.626  -3.237   4.653  0.00  0.00    +0.000 C 
ATOM     16  C   UNL     1       8.236  -4.351   5.577  0.00  0.00    +0.000 C 
ENDBRANCH  14  15
BRANCH  14  17
ATOM     17  C   UNL     1       7.540  -4.659   2.995  0.00  0.00    +0.000 C 
BRANCH  17  18
ATOM     18  C   UNL     1       6.055  -4.676   2.569  0.00  0.00    +0.000 C 
BRANCH  18  20
ATOM     19  C   UNL     1       7.144  -5.479   0.504  0.00  0.00    +0.000 C 
ATOM     20  C   UNL     1       5.874  -4.827   1.092  0.00  0.00    +0.000 C 
ENDBRANCH  18  20
ENDBRANCH  17  18
ENDBRANCH  14  17
ENDBRANCH  13  14
ENDBRANCH   1  13
TORSDOF 9
ENDMDL
MODEL 3
REMARK VINA RESULT:      -4.0      3.139      6.626
REMARK  Name = bg33_3_ligand
REMARK  12 active torsions:
REMARK  status: ('A' for Active; 'I' for Inactive)
REMARK    1  A    between atoms: C_1  and  C_2
REMARK    2  A    between atoms: C_2  and  C_3
REMARK    3  A    between atoms: C_3  and  C_4
REMARK    4  A    between atoms: C_4  and  C_5
REMARK    5  A    between atoms: C_5  and  C_6
REMARK    6  A    between atoms: C_5  and  O_8
REMARK    7  A    between atoms: C_6  and  C_7
REMARK    8  A    between atoms: O_8  and  C_9
REMARK    9  A    between atoms: C_9  and  C_11
REMARK   10  A    between atoms: C_12  and  C_13
REMARK   11  A    between atoms: C_16  and  O_17
REMARK   12  A    between atoms: O_17  and  C_18
REMARK                            x       y       z     vdW  Elec       q    Type
REMARK                         _______ _______ _______ _____ _____    ______ ____
ROOT
ATOM      1  C   UNL     1       8.400   0.333   1.697  0.00  0.00    +0.000 C 
ATOM      2  O   UNL     1       9.555   0.156   2.007  0.00  0.00    +0.000 OA
ENDROOT
BRANCH   1   3
ATOM      3  C   UNL     1       7.892   0.094   0.236  0.00  0.00    +0.000 C 
ATOM      4  C   UNL     1       6.663  -0.442   0.054  0.00  0.00    +0.000 C 
BRANCH   4   5
ATOM      5  C   UNL     1       6.164  -0.783  -1.253  0.00  0.00    +0.000 A 
ATOM      6  C   UNL     1       5.622  -2.022  -1.510  0.00  0.00    +0.000 A 
ATOM      7  C   UNL     1       5.102  -2.348  -2.710  0.00  0.00    +0.000 A 
ATOM      8  C   UNL     1       5.123  -1.401  -3.708  0.00  0.00    +0.000 A 
ATOM      9  C   UNL     1       5.682  -0.178  -3.501  0.00  0.00    +0.000 A 
ATOM     10  C   UNL     1       6.198   0.134  -2.261  0.00  0.00    +0.000 A 
BRANCH   8  11
ATOM     11  O   UNL     1       4.657  -1.659  -4.949  0.00  0.00    +0.000 OA
ATOM     12  C   UNL     1       4.941  -0.675  -5.929  0.00  0.00    +0.000 C 
ENDBRANCH   8  11
ENDBRANCH   4   5
ENDBRANCH   1   3
BRANCH   1  13
ATOM     13  O   UNL     1       7.615   0.748   2.598  0.00  0.00    +0.000 OA
BRANCH  13  14
ATOM     14  C   UNL     1       7.979   1.983   3.292  0.00  0.00    +0.000 C 
BRANCH  14  15
ATOM     15  C   UNL     1       7.128   2.122   4.466  0.00  0.00    +0.000 C 
ATOM     16  C   UNL     1       7.820   2.761   5.633  0.00  0.00    +0.000 C 
ENDBRANCH  14  15
BRANCH  14  17
ATOM     17  C   UNL     1       7.810   3.184   2.379  0.00  0.00    +0.000 C 
BRANCH  17  18
ATOM     18  C   UNL     1       6.304   3.523   2.330  0.00  0.00    +0.000 C 
BRANCH  18  20
ATOM     19  C   UNL     1       6.585   3.526  -0.123  0.00  0.00    +0.000 C 
ATOM     20  C   UNL     1       5.657   3.119   1.043  0.00  0.00    +0.000 C 
ENDBRANCH  18  20
ENDBRANCH  17  18
ENDBRANCH  14  17
ENDBRANCH  13  14
ENDBRANCH   1  13
TORSDOF 9
ENDMDL
MODEL 4
REMARK VINA RESULT:      -4.0      1.786      6.776
REMARK  Name = bg33_3_ligand
REMARK  12 active torsions:
REMARK  status: ('A' for Active; 'I' for Inactive)
REMARK    1  A    between atoms: C_1  and  C_2
REMARK    2  A    between atoms: C_2  and  C_3
REMARK    3  A    between atoms: C_3  and  C_4
REMARK    4  A    between atoms: C_4  and  C_5
REMARK    5  A    between atoms: C_5  and  C_6
REMARK    6  A    between atoms: C_5  and  O_8
REMARK    7  A    between atoms: C_6  and  C_7
REMARK    8  A    between atoms: O_8  and  C_9
REMARK    9  A    between atoms: C_9  and  C_11
REMARK   10  A    between atoms: C_12  and  C_13
REMARK   11  A    between atoms: C_16  and  O_17
REMARK   12  A    between atoms: O_17  and  C_18
REMARK                            x       y       z     vdW  Elec       q    Type
REMARK                         _______ _______ _______ _____ _____    ______ ____
ROOT
ATOM      1  C   UNL     1       6.637  -4.612   0.840  0.00  0.00    +0.000 C 
ATOM      2  O   UNL     1       6.612  -5.818   0.752  0.00  0.00    +0.000 OA
ENDROOT
BRANCH   1   3
ATOM      3  C   UNL     1       6.708  -3.694  -0.425  0.00  0.00    +0.000 C 
ATOM      4  C   UNL     1       5.788  -2.712  -0.570  0.00  0.00    +0.000 C 
BRANCH   4   5
ATOM      5  C   UNL     1       5.726  -1.890  -1.751  0.00  0.00    +0.000 A 
ATOM      6  C   UNL     1       5.124  -2.341  -2.904  0.00  0.00    +0.000 A 
ATOM      7  C   UNL     1       5.008  -1.572  -4.006  0.00  0.00    +0.000 A 
ATOM      8  C   UNL     1       5.518  -0.295  -3.965  0.00  0.00    +0.000 A 
ATOM      9  C   UNL     1       6.150   0.172  -2.854  0.00  0.00    +0.000 A 
ATOM     10  C   UNL     1       6.247  -0.631  -1.738  0.00  0.00    +0.000 A 
BRANCH   8  11
ATOM     11  O   UNL     1       5.477   0.526  -5.036  0.00  0.00    +0.000 OA
ATOM     12  C   UNL     1       5.424  -0.114  -6.299  0.00  0.00    +0.000 C 
ENDBRANCH   8  11
ENDBRANCH   4   5
ENDBRANCH   1   3
BRANCH   1  13
ATOM     13  O   UNL     1       6.630  -4.116   2.003  0.00  0.00    +0.000 OA
BRANCH  13  14
ATOM     14  C   UNL     1       7.827  -4.306   2.824  0.00  0.00    +0.000 C 
BRANCH  14  15
ATOM     15  C   UNL     1       7.451  -4.181   4.226  0.00  0.00    +0.000 C 
ATOM     16  C   UNL     1       5.994  -4.429   4.479  0.00  0.00    +0.000 C 
ENDBRANCH  14  15
BRANCH  14  17
ATOM     17  C   UNL     1       8.888  -3.278   2.474  0.00  0.00    +0.000 C 
BRANCH  17  18
ATOM     18  C   UNL     1       8.251  -1.879   2.629  0.00  0.00    +0.000 C 
BRANCH  18  20
ATOM     19  C   UNL     1       7.722   0.330   1.663  0.00  0.00    +0.000 C 
ATOM     20  C   UNL     1       8.450  -1.012   1.427  0.00  0.00    +0.000 C 
ENDBRANCH  18  20
ENDBRANCH  17  18
ENDBRANCH  14  17
ENDBRANCH  13  14
ENDBRANCH   1  13
TORSDOF 9
ENDMDL
MODEL 5
REMARK VINA RESULT:      -3.9      1.920      7.319
REMARK  Name = bg33_3_ligand
REMARK  12 active torsions:
REMARK  status: ('A' for Active; 'I' for Inactive)
REMARK    1  A    between atoms: C_1  and  C_2
REMARK    2  A    between atoms: C_2  and  C_3
REMARK    3  A    between atoms: C_3  and  C_4
REMARK    4  A    between atoms: C_4  and  C_5
REMARK    5  A    between atoms: C_5  and  C_6
REMARK    6  A    between atoms: C_5  and  O_8
REMARK    7  A    between atoms: C_6  and  C_7
REMARK    8  A    between atoms: O_8  and  C_9
REMARK    9  A    between atoms: C_9  and  C_11
REMARK   10  A    between atoms: C_12  and  C_13
REMARK   11  A    between atoms: C_16  and  O_17
REMARK   12  A    between atoms: O_17  and  C_18
REMARK                            x       y       z     vdW  Elec       q    Type
REMARK                         _______ _______ _______ _____ _____    ______ ____
ROOT
ATOM      1  C   UNL     1       8.099  -2.464   1.779  0.00  0.00    +0.000 C 
ATOM      2  O   UNL     1       8.483  -1.462   2.335  0.00  0.00    +0.000 OA
ENDROOT
BRANCH   1   3
ATOM      3  C   UNL     1       7.604  -2.444   0.294  0.00  0.00    +0.000 C 
ATOM      4  C   UNL     1       6.752  -1.468  -0.095  0.00  0.00    +0.000 C 
BRANCH   4   5
ATOM      5  C   UNL     1       6.174  -1.437  -1.414  0.00  0.00    +0.000 A 
ATOM      6  C   UNL     1       5.404  -2.478  -1.881  0.00  0.00    +0.000 A 
ATOM      7  C   UNL     1       4.811  -2.451  -3.092  0.00  0.00    +0.000 A 
ATOM      8  C   UNL     1       4.994  -1.339  -3.881  0.00  0.00    +0.000 A 
ATOM      9  C   UNL     1       5.777  -0.307  -3.466  0.00  0.00    +0.000 A 
ATOM     10  C   UNL     1       6.364  -0.355  -2.220  0.00  0.00    +0.000 A 
BRANCH   8  11
ATOM     11  O   UNL     1       4.467  -1.248  -5.121  0.00  0.00    +0.000 OA
ATOM     12  C   UNL     1       5.294  -1.706  -6.176  0.00  0.00    +0.000 C 
ENDBRANCH   8  11
ENDBRANCH   4   5
ENDBRANCH   1   3
BRANCH   1  13
ATOM     13  O   UNL     1       8.087  -3.533   2.453  0.00  0.00    +0.000 OA
BRANCH  13  14
ATOM     14  C   UNL     1       6.781  -4.089   2.811  0.00  0.00    +0.000 C 
BRANCH  14  15
ATOM     15  C   UNL     1       6.819  -4.497   4.209  0.00  0.00    +0.000 C 
ATOM     16  C   UNL     1       7.059  -3.361   5.157  0.00  0.00    +0.000 C 
ENDBRANCH  14  15
BRANCH  14  17
ATOM     17  C   UNL     1       6.441  -5.277   1.929  0.00  0.00    +0.000 C 
BRANCH  17  18
ATOM     18  C   UNL     1       7.568  -6.320   2.099  0.00  0.00    +0.000 C 
BRANCH  18  20
ATOM     19  C   UNL     1       7.557  -6.052  -0.355  0.00  0.00    +0.000 C 
ATOM     20  C   UNL     1       7.948  -6.982   0.813  0.00  0.00    +0.000 C 
ENDBRANCH  18  20
ENDBRANCH  17  18
ENDBRANCH  14  17
ENDBRANCH  13  14
ENDBRANCH   1  13
TORSDOF 9
ENDMDL
MODEL 6
REMARK VINA RESULT:      -3.8      3.405      6.793
REMARK  Name = bg33_3_ligand
REMARK  12 active torsions:
REMARK  status: ('A' for Active; 'I' for Inactive)
REMARK    1  A    between atoms: C_1  and  C_2
REMARK    2  A    between atoms: C_2  and  C_3
REMARK    3  A    between atoms: C_3  and  C_4
REMARK    4  A    between atoms: C_4  and  C_5
REMARK    5  A    between atoms: C_5  and  C_6
REMARK    6  A    between atoms: C_5  and  O_8
REMARK    7  A    between atoms: C_6  and  C_7
REMARK    8  A    between atoms: O_8  and  C_9
REMARK    9  A    between atoms: C_9  and  C_11
REMARK   10  A    between atoms: C_12  and  C_13
REMARK   11  A    between atoms: C_16  and  O_17
REMARK   12  A    between atoms: O_17  and  C_18
REMARK                            x       y       z     vdW  Elec       q    Type
REMARK                         _______ _______ _______ _____ _____    ______ ____
ROOT
ATOM      1  C   UNL     1       8.259   0.421   1.201  0.00  0.00    +0.000 C 
ATOM      2  O   UNL     1       8.730  -0.521   1.794  0.00  0.00    +0.000 OA
ENDROOT
BRANCH   1   3
ATOM      3  C   UNL     1       7.676   0.277  -0.245  0.00  0.00    +0.000 C 
ATOM      4  C   UNL     1       6.592  -0.510  -0.434  0.00  0.00    +0.000 C 
BRANCH   4   5
ATOM      5  C   UNL     1       6.056  -0.771  -1.745  0.00  0.00    +0.000 A 
ATOM      6  C   UNL     1       5.498  -1.991  -2.058  0.00  0.00    +0.000 A 
ATOM      7  C   UNL     1       4.944  -2.244  -3.261  0.00  0.00    +0.000 A 
ATOM      8  C   UNL     1       4.947  -1.240  -4.203  0.00  0.00    +0.000 A 
ATOM      9  C   UNL     1       5.521  -0.035  -3.940  0.00  0.00    +0.000 A 
ATOM     10  C   UNL     1       6.071   0.201  -2.699  0.00  0.00    +0.000 A 
BRANCH   8  11
ATOM     11  O   UNL     1       4.448  -1.423  -5.444  0.00  0.00    +0.000 OA
ATOM     12  C   UNL     1       5.396  -1.741  -6.448  0.00  0.00    +0.000 C 
ENDBRANCH   8  11
ENDBRANCH   4   5
ENDBRANCH   1   3
BRANCH   1  13
ATOM     13  O   UNL     1       8.279   1.543   1.784  0.00  0.00    +0.000 OA
BRANCH  13  14
ATOM     14  C   UNL     1       7.265   1.786   2.811  0.00  0.00    +0.000 C 
BRANCH  14  15
ATOM     15  C   UNL     1       6.711   3.118   2.608  0.00  0.00    +0.000 C 
ATOM     16  C   UNL     1       5.848   3.226   1.387  0.00  0.00    +0.000 C 
ENDBRANCH  14  15
BRANCH  14  17
ATOM     17  C   UNL     1       7.869   1.678   4.200  0.00  0.00    +0.000 C 
BRANCH  17  18
ATOM     18  C   UNL     1       6.842   2.253   5.200  0.00  0.00    +0.000 C 
BRANCH  18  20
ATOM     19  C   UNL     1       8.986   2.841   6.274  0.00  0.00    +0.000 C 
ATOM     20  C   UNL     1       7.468   3.123   6.243  0.00  0.00    +0.000 C 
ENDBRANCH  18  20
ENDBRANCH  17  18
ENDBRANCH  14  17
ENDBRANCH  13  14
ENDBRANCH   1  13
TORSDOF 9
ENDMDL
MODEL 7
REMARK VINA RESULT:      -3.8      3.145      7.261
REMARK  Name = bg33_3_ligand
REMARK  12 active torsions:
REMARK  status: ('A' for Active; 'I' for Inactive)
REMARK    1  A    between atoms: C_1  and  C_2
REMARK    2  A    between atoms: C_2  and  C_3
REMARK    3  A    between atoms: C_3  and  C_4
REMARK    4  A    between atoms: C_4  and  C_5
REMARK    5  A    between atoms: C_5  and  C_6
REMARK    6  A    between atoms: C_5  and  O_8
REMARK    7  A    between atoms: C_6  and  C_7
REMARK    8  A    between atoms: O_8  and  C_9
REMARK    9  A    between atoms: C_9  and  C_11
REMARK   10  A    between atoms: C_12  and  C_13
REMARK   11  A    between atoms: C_16  and  O_17
REMARK   12  A    between atoms: O_17  and  C_18
REMARK                            x       y       z     vdW  Elec       q    Type
REMARK                         _______ _______ _______ _____ _____    ______ ____
ROOT
ATOM      1  C   UNL     1       8.798  -2.961   3.141  0.00  0.00    +0.000 C 
ATOM      2  O   UNL     1       9.615  -3.082   4.024  0.00  0.00    +0.000 OA
ENDROOT
BRANCH   1   3
ATOM      3  C   UNL     1       8.344  -1.555   2.624  0.00  0.00    +0.000 C 
ATOM      4  C   UNL     1       8.085  -0.583   3.528  0.00  0.00    +0.000 C 
BRANCH   4   5
ATOM      5  C   UNL     1       7.570   0.705   3.139  0.00  0.00    +0.000 A 
ATOM      6  C   UNL     1       7.403   1.716   4.060  0.00  0.00    +0.000 A 
ATOM      7  C   UNL     1       6.971   2.944   3.712  0.00  0.00    +0.000 A 
ATOM      8  C   UNL     1       6.685   3.184   2.388  0.00  0.00    +0.000 A 
ATOM      9  C   UNL     1       6.805   2.199   1.457  0.00  0.00    +0.000 A 
ATOM     10  C   UNL     1       7.258   0.954   1.836  0.00  0.00    +0.000 A 
BRANCH   8  11
ATOM     11  O   UNL     1       6.212   4.375   1.962  0.00  0.00    +0.000 OA
ATOM     12  C   UNL     1       6.950   5.513   2.372  0.00  0.00    +0.000 C 
ENDBRANCH   8  11
ENDBRANCH   4   5
ENDBRANCH   1   3
BRANCH   1  13
ATOM     13  O   UNL     1       8.299  -4.021   2.663  0.00  0.00    +0.000 OA
BRANCH  13  14
ATOM     14  C   UNL     1       6.840  -4.113   2.608  0.00  0.00    +0.000 C 
BRANCH  14  15
ATOM     15  C   UNL     1       6.355  -4.562   3.906  0.00  0.00    +0.000 C 
ATOM     16  C   UNL     1       6.709  -5.986   4.216  0.00  0.00    +0.000 C 
ENDBRANCH  14  15
BRANCH  14  17
ATOM     17  C   UNL     1       6.402  -5.080   1.523  0.00  0.00    +0.000 C 
BRANCH  17  18
ATOM     18  C   UNL     1       6.860  -4.499   0.167  0.00  0.00    +0.000 C 
BRANCH  18  20
ATOM     19  C   UNL     1       6.321  -2.920  -1.653  0.00  0.00    +0.000 C 
ATOM     20  C   UNL     1       6.252  -3.165  -0.130  0.00  0.00    +0.000 C 
ENDBRANCH  18  20
ENDBRANCH  17  18
ENDBRANCH  14  17
ENDBRANCH  13  14
ENDBRANCH   1  13
TORSDOF 9
ENDMDL
MODEL 8
REMARK VINA RESULT:      -3.8      2.118      6.868
REMARK  Name = bg33_3_ligand
REMARK  12 active torsions:
REMARK  status: ('A' for Active; 'I' for Inactive)
REMARK    1  A    between atoms: C_1  and  C_2
REMARK    2  A    between atoms: C_2  and  C_3
REMARK    3  A    between atoms: C_3  and  C_4
REMARK    4  A    between atoms: C_4  and  C_5
REMARK    5  A    between atoms: C_5  and  C_6
REMARK    6  A    between atoms: C_5  and  O_8
REMARK    7  A    between atoms: C_6  and  C_7
REMARK    8  A    between atoms: O_8  and  C_9
REMARK    9  A    between atoms: C_9  and  C_11
REMARK   10  A    between atoms: C_12  and  C_13
REMARK   11  A    between atoms: C_16  and  O_17
REMARK   12  A    between atoms: O_17  and  C_18
REMARK                            x       y       z     vdW  Elec       q    Type
REMARK                         _______ _______ _______ _____ _____    ______ ____
ROOT
ATOM      1  C   UNL     1       6.594  -4.942   2.621  0.00  0.00    +0.000 C 
ATOM      2  O   UNL     1       6.717  -6.068   3.046  0.00  0.00    +0.000 OA
ENDROOT
BRANCH   1   3
ATOM      3  C   UNL     1       6.229  -4.661   1.125  0.00  0.00    +0.000 C 
ATOM      4  C   UNL     1       6.931  -3.722   0.450  0.00  0.00    +0.000 C 
BRANCH   4   5
ATOM      5  C   UNL     1       6.594  -3.336  -0.897  0.00  0.00    +0.000 A 
ATOM      6  C   UNL     1       7.303  -3.815  -1.976  0.00  0.00    +0.000 A 
ATOM      7  C   UNL     1       6.975  -3.510  -3.247  0.00  0.00    +0.000 A 
ATOM      8  C   UNL     1       5.895  -2.685  -3.461  0.00  0.00    +0.000 A 
ATOM      9  C   UNL     1       5.193  -2.165  -2.418  0.00  0.00    +0.000 A 
ATOM     10  C   UNL     1       5.542  -2.501  -1.128  0.00  0.00    +0.000 A 
BRANCH   8  11
ATOM     11  O   UNL     1       5.524  -2.299  -4.701  0.00  0.00    +0.000 OA
ATOM     12  C   UNL     1       4.974  -0.997  -4.802  0.00  0.00    +0.000 C 
ENDBRANCH   8  11
ENDBRANCH   4   5
ENDBRANCH   1   3
BRANCH   1  13
ATOM     13  O   UNL     1       6.798  -3.992   3.429  0.00  0.00    +0.000 OA
BRANCH  13  14
ATOM     14  C   UNL     1       8.088  -3.960   4.118  0.00  0.00    +0.000 C 
BRANCH  14  15
ATOM     15  C   UNL     1       7.848  -3.765   5.542  0.00  0.00    +0.000 C 
ATOM     16  C   UNL     1       9.079  -3.926   6.383  0.00  0.00    +0.000 C 
ENDBRANCH  14  15
BRANCH  14  17
ATOM     17  C   UNL     1       8.960  -2.840   3.578  0.00  0.00    +0.000 C 
BRANCH  17  18
ATOM     18  C   UNL     1       8.106  -1.553   3.560  0.00  0.00    +0.000 C 
BRANCH  18  20
ATOM     19  C   UNL     1       9.443  -1.352   1.495  0.00  0.00    +0.000 C 
ATOM     20  C   UNL     1       8.258  -0.770   2.295  0.00  0.00    +0.000 C 
ENDBRANCH  18  20
ENDBRANCH  17  18
ENDBRANCH  14  17
ENDBRANCH  13  14
ENDBRANCH   1  13
TORSDOF 9
ENDMDL
MODEL 9
REMARK VINA RESULT:      -3.7      2.803      5.442
REMARK  Name = bg33_3_ligand
REMARK  12 active torsions:
REMARK  status: ('A' for Active; 'I' for Inactive)
REMARK    1  A    between atoms: C_1  and  C_2
REMARK    2  A    between atoms: C_2  and  C_3
REMARK    3  A    between atoms: C_3  and  C_4
REMARK    4  A    between atoms: C_4  and  C_5
REMARK    5  A    between atoms: C_5  and  C_6
REMARK    6  A    between atoms: C_5  and  O_8
REMARK    7  A    between atoms: C_6  and  C_7
REMARK    8  A    between atoms: O_8  and  C_9
REMARK    9  A    between atoms: C_9  and  C_11
REMARK   10  A    between atoms: C_12  and  C_13
REMARK   11  A    between atoms: C_16  and  O_17
REMARK   12  A    between atoms: O_17  and  C_18
REMARK                            x       y       z     vdW  Elec       q    Type
REMARK                         _______ _______ _______ _____ _____    ______ ____
ROOT
ATOM      1  C   UNL     1       6.258   0.770  -3.123  0.00  0.00    +0.000 C 
ATOM      2  O   UNL     1       6.719   1.536  -3.936  0.00  0.00    +0.000 OA
ENDROOT
BRANCH   1   3
ATOM      3  C   UNL     1       6.520   0.940  -1.589  0.00  0.00    +0.000 C 
ATOM      4  C   UNL     1       6.081   2.062  -0.974  0.00  0.00    +0.000 C 
BRANCH   4   5
ATOM      5  C   UNL     1       6.368   2.338   0.410  0.00  0.00    +0.000 A 
ATOM      6  C   UNL     1       6.894   1.370   1.237  0.00  0.00    +0.000 A 
ATOM      7  C   UNL     1       7.219   1.618   2.522  0.00  0.00    +0.000 A 
ATOM      8  C   UNL     1       7.007   2.886   3.014  0.00  0.00    +0.000 A 
ATOM      9  C   UNL     1       6.456   3.856   2.236  0.00  0.00    +0.000 A 
ATOM     10  C   UNL     1       6.142   3.579   0.923  0.00  0.00    +0.000 A 
BRANCH   8  11
ATOM     11  O   UNL     1       7.268   3.206   4.300  0.00  0.00    +0.000 OA
ATOM     12  C   UNL     1       6.846   2.262   5.268  0.00  0.00    +0.000 C 
ENDBRANCH   8  11
ENDBRANCH   4   5
ENDBRANCH   1   3
BRANCH   1  13
ATOM     13  O   UNL     1       5.572  -0.198  -3.561  0.00  0.00    +0.000 OA
BRANCH  13  14
ATOM     14  C   UNL     1       6.075  -1.549  -3.310  0.00  0.00    +0.000 C 
BRANCH  14  15
ATOM     15  C   UNL     1       6.502  -2.127  -4.578  0.00  0.00    +0.000 C 
ATOM     16  C   UNL     1       7.256  -3.413  -4.424  0.00  0.00    +0.000 C 
ENDBRANCH  14  15
BRANCH  14  17
ATOM     17  C   UNL     1       5.002  -2.415  -2.676  0.00  0.00    +0.000 C 
BRANCH  17  18
ATOM     18  C   UNL     1       5.257  -2.432  -1.153  0.00  0.00    +0.000 C 
BRANCH  18  20
ATOM     19  C   UNL     1       6.883  -4.022  -0.191  0.00  0.00    +0.000 C 
ATOM     20  C   UNL     1       6.700  -2.617  -0.805  0.00  0.00    +0.000 C 
ENDBRANCH  18  20
ENDBRANCH  17  18
ENDBRANCH  14  17
ENDBRANCH  13  14
ENDBRANCH   1  13
TORSDOF 9
ENDMDL
