REMARK  Name = shuffle_control_esm0_ligand
REMARK  12 active torsions:
REMARK  status: ('A' for Active; 'I' for Inactive)
REMARK    1  A    between atoms: C_1  and  C_2
REMARK    2  A    between atoms: C_2  and  C_3
REMARK    3  A    between atoms: C_3  and  C_4
REMARK    4  A    between atoms: C_4  and  C_5
REMARK    5  A    between atoms: C_5  and  C_6
REMARK    6  A    between atoms: C_5  and  O_8
REMARK    7  A    between atoms: C_6  and  C_7
REMARK    8  A    between atoms: O_8  and  C_9
REMARK    9  A    between atoms: C_9  and  C_11
REMARK   10  A    between atoms: C_12  and  C_13
REMARK   11  A    between atoms: C_16  and  O_17
REMARK   12  A    between atoms: O_17  and  C_18
REMARK                            x       y       z     vdW  Elec       q    Type
REMARK                         _______ _______ _______ _____ _____    ______ ____
ROOT
ATOM      1  C   UNL     1       0.838   4.921   5.821  0.00  0.00    +0.000 C 
ATOM      2  O   UNL     1       0.727   5.310   4.701  0.00  0.00    +0.000 OA
ENDROOT
BRANCH   1   3
ATOM      3  C   UNL     1       0.103   3.740   6.369  0.00  0.00    +0.000 C 
ATOM      4  C   UNL     1      -1.017   3.896   7.053  0.00  0.00    +0.000 C 
BRANCH   4   5
ATOM      5  C   UNL     1      -1.728   2.773   7.735  0.00  0.00    +0.000 A 
ATOM      6  C   UNL     1      -2.093   2.933   9.047  0.00  0.00    +0.000 A 
ATOM      7  C   UNL     1      -2.730   1.912   9.738  0.00  0.00    +0.000 A 
ATOM      8  C   UNL     1      -3.019   0.716   9.108  0.00  0.00    +0.000 A 
ATOM      9  C   UNL     1      -2.656   0.556   7.771  0.00  0.00    +0.000 A 
ATOM     10  C   UNL     1      -2.017   1.591   7.080  0.00  0.00    +0.000 A 
BRANCH   8  11
ATOM     11  O   UNL     1      -3.627  -0.306   9.747  0.00  0.00    +0.000 OA
ATOM     12  C   UNL     1      -3.908  -0.194  11.141  0.00  0.00    +0.000 C 
ENDBRANCH   8  11
ENDBRANCH   4   5
ENDBRANCH   1   3
BRANCH   1  13
ATOM     13  O   UNL     1       1.652   5.537   6.713  0.00  0.00    +0.000 OA
BRANCH  13  14
ATOM     14  C   UNL     1       2.325   6.758   6.421  0.00  0.00    +0.000 C 
BRANCH  14  15
ATOM     15  C   UNL     1       3.818   6.569   6.227  0.00  0.00    +0.000 C 
ATOM     16  C   UNL     1       4.240   5.807   5.004  0.00  0.00    +0.000 C 
ENDBRANCH  14  15
BRANCH  14  17
ATOM     17  C   UNL     1       2.127   7.680   7.580  0.00  0.00    +0.000 C 
BRANCH  17  18
ATOM     18  C   UNL     1       0.738   7.713   8.120  0.00  0.00    +0.000 C 
BRANCH  18  20
ATOM     19  C   UNL     1       1.515   9.500   9.766  0.00  0.00    +0.000 C 
ATOM     20  C   UNL     1       0.518   8.456   9.402  0.00  0.00    +0.000 C 
ENDBRANCH  18  20
ENDBRANCH  17  18
ENDBRANCH  14  17
ENDBRANCH  13  14
ENDBRANCH   1  13
TORSDOF 9
