MODEL 1
REMARK VINA RESULT:      -4.5      0.000      0.000
REMARK  Name = shuffle_control_esm0_ligand
REMARK  12 active torsions:
REMARK  status: ('A' for Active; 'I' for Inactive)
REMARK    1  A    between atoms: C_1  and  C_2
REMARK    2  A    between atoms: C_2  and  C_3
REMARK    3  A    between atoms: C_3  and  C_4
REMARK    4  A    between atoms: C_4  and  C_5
REMARK    5  A    between atoms: C_5  and  C_6
REMARK    6  A    between atoms: C_5  and  O_8
REMARK    7  A    between atoms: C_6  and  C_7
REMARK    8  A    between atoms: O_8  and  C_9
REMARK    9  A    between atoms: C_9  and  C_11
REMARK   10  A    between atoms: C_12  and  C_13
REMARK   11  A    between atoms: C_16  and  O_17
REMARK   12  A    between atoms: O_17  and  C_18
REMARK                            x       y       z     vdW  Elec       q    Type
REMARK                         _______ _______ _______ _____ _____    ______ ____
ROOT
ATOM      1  C   UNL     1       4.997   3.249   5.800  0.00  0.00    +0.000 C 
ATOM      2  O   UNL     1       4.107   3.768   6.396  0.00  0.00    +0.000 OA
ENDROOT
BRANCH   1   3
ATOM      3  C   UNL     1       5.442   3.668   4.436  0.00  0.00    +0.000 C 
ATOM      4  C   UNL     1       6.190   4.745   4.268  0.00  0.00    +0.000 C 
BRANCH   4   5
ATOM      5  C   UNL     1       6.559   5.290   2.927  0.00  0.00    +0.000 A 
ATOM      6  C   UNL     1       7.857   5.681   2.716  0.00  0.00    +0.000 A 
ATOM      7  C   UNL     1       8.248   6.220   1.499  0.00  0.00    +0.000 A 
ATOM      8  C   UNL     1       7.335   6.362   0.471  0.00  0.00    +0.000 A 
ATOM      9  C   UNL     1       6.018   5.955   0.681  0.00  0.00    +0.000 A 
ATOM     10  C   UNL     1       5.631   5.409   1.910  0.00  0.00    +0.000 A 
BRANCH   8  11
ATOM     11  O   UNL     1       7.673   6.892  -0.724  0.00  0.00    +0.000 OA
ATOM     12  C   UNL     1       9.051   7.024  -1.069  0.00  0.00    +0.000 C 
ENDBRANCH   8  11
ENDBRANCH   4   5
ENDBRANCH   1   3
BRANCH   1  13
ATOM     13  O   UNL     1       5.689   2.204   6.318  0.00  0.00    +0.000 OA
BRANCH  13  14
ATOM     14  C   UNL     1       6.089   1.085   5.533  0.00  0.00    +0.000 C 
BRANCH  14  15
ATOM     15  C   UNL     1       5.241  -0.145   5.796  0.00  0.00    +0.000 C 
ATOM     16  C   UNL     1       4.022  -0.311   4.934  0.00  0.00    +0.000 C 
ENDBRANCH  14  15
BRANCH  14  17
ATOM     17  C   UNL     1       7.501   0.753   5.893  0.00  0.00    +0.000 C 
BRANCH  17  18
ATOM     18  C   UNL     1       8.533   1.469   5.090  0.00  0.00    +0.000 C 
BRANCH  18  20
ATOM     19  C   UNL     1       9.361   3.772   5.808  0.00  0.00    +0.000 C 
ATOM     20  C   UNL     1       9.534   2.294   5.840  0.00  0.00    +0.000 C 
ENDBRANCH  18  20
ENDBRANCH  17  18
ENDBRANCH  14  17
ENDBRANCH  13  14
ENDBRANCH   1  13
TORSDOF 9
ENDMDL
MODEL 2
REMARK VINA RESULT:      -4.1      1.595      3.688
REMARK  Name = shuffle_control_esm0_ligand
REMARK  12 active torsions:
REMARK  status: ('A' for Active; 'I' for Inactive)
REMARK    1  A    between atoms: C_1  and  C_2
REMARK    2  A    between atoms: C_2  and  C_3
REMARK    3  A    between atoms: C_3  and  C_4
REMARK    4  A    between atoms: C_4  and  C_5
REMARK    5  A    between atoms: C_5  and  C_6
REMARK    6  A    between atoms: C_5  and  O_8
REMARK    7  A    between atoms: C_6  and  C_7
REMARK    8  A    between atoms: O_8  and  C_9
REMARK    9  A    between atoms: C_9  and  C_11
REMARK   10  A    between atoms: C_12  and  C_13
REMARK   11  A    between atoms: C_16  and  O_17
REMARK   12  A    between atoms: O_17  and  C_18
REMARK                            x       y       z     vdW  Elec       q    Type
REMARK                         _______ _______ _______ _____ _____    ______ ____
ROOT
ATOM      1  C   UNL     1       7.849   2.197   5.322  0.00  0.00    +0.000 C 
ATOM      2  O   UNL     1       8.719   2.438   6.098  0.00  0.00    +0.000 OA
ENDROOT
BRANCH   1   3
ATOM      3  C   UNL     1       7.589   2.998   4.087  0.00  0.00    +0.000 C 
ATOM      4  C   UNL     1       7.546   4.318   4.131  0.00  0.00    +0.000 C 
BRANCH   4   5
ATOM      5  C   UNL     1       7.165   5.168   2.963  0.00  0.00    +0.000 A 
ATOM      6  C   UNL     1       5.859   5.154   2.544  0.00  0.00    +0.000 A 
ATOM      7  C   UNL     1       5.455   5.902   1.448  0.00  0.00    +0.000 A 
ATOM      8  C   UNL     1       6.365   6.687   0.764  0.00  0.00    +0.000 A 
ATOM      9  C   UNL     1       7.691   6.709   1.195  0.00  0.00    +0.000 A 
ATOM     10  C   UNL     1       8.090   5.955   2.304  0.00  0.00    +0.000 A 
BRANCH   8  11
ATOM     11  O   UNL     1       6.016   7.421  -0.314  0.00  0.00    +0.000 OA
ATOM     12  C   UNL     1       4.865   8.261  -0.248  0.00  0.00    +0.000 C 
ENDBRANCH   8  11
ENDBRANCH   4   5
ENDBRANCH   1   3
BRANCH   1  13
ATOM     13  O   UNL     1       6.998   1.158   5.505  0.00  0.00    +0.000 OA
BRANCH  13  14
ATOM     14  C   UNL     1       5.589   1.280   5.332  0.00  0.00    +0.000 C 
BRANCH  14  15
ATOM     15  C   UNL     1       4.968   2.276   6.293  0.00  0.00    +0.000 C 
ATOM     16  C   UNL     1       4.250   3.441   5.675  0.00  0.00    +0.000 C 
ENDBRANCH  14  15
BRANCH  14  17
ATOM     17  C   UNL     1       4.976  -0.056   5.597  0.00  0.00    +0.000 C 
BRANCH  17  18
ATOM     18  C   UNL     1       3.687  -0.302   4.890  0.00  0.00    +0.000 C 
BRANCH  18  20
ATOM     19  C   UNL     1       1.487   0.922   5.300  0.00  0.00    +0.000 C 
ATOM     20  C   UNL     1       2.428  -0.164   5.690  0.00  0.00    +0.000 C 
ENDBRANCH  18  20
ENDBRANCH  17  18
ENDBRANCH  14  17
ENDBRANCH  13  14
ENDBRANCH   1  13
TORSDOF 9
ENDMDL
MODEL 3
REMARK VINA RESULT:      -4.1      1.421      3.518
REMARK  Name = shuffle_control_esm0_ligand
REMARK  12 active torsions:
REMARK  status: ('A' for Active; 'I' for Inactive)
REMARK    1  A    between atoms: C_1  and  C_2
REMARK    2  A    between atoms: C_2  and  C_3
REMARK    3  A    between atoms: C_3  and  C_4
REMARK    4  A    between atoms: C_4  and  C_5
REMARK    5  A    between atoms: C_5  and  C_6
REMARK    6  A    between atoms: C_5  and  O_8
REMARK    7  A    between atoms: C_6  and  C_7
REMARK    8  A    between atoms: O_8  and  C_9
REMARK    9  A    between atoms: C_9  and  C_11
REMARK   10  A    between atoms: C_12  and  C_13
REMARK   11  A    between atoms: C_16  and  O_17
REMARK   12  A    between atoms: O_17  and  C_18
REMARK                            x       y       z     vdW  Elec       q    Type
REMARK                         _______ _______ _______ _____ _____    ______ ____
ROOT
ATOM      1  C   UNL     1       5.533   3.847   4.582  0.00  0.00    +0.000 C 
ATOM      2  O   UNL     1       4.773   4.159   5.444  0.00  0.00    +0.000 OA
ENDROOT
BRANCH   1   3
ATOM      3  C   UNL     1       6.050   4.792   3.546  0.00  0.00    +0.000 C 
ATOM      4  C   UNL     1       7.315   4.756   3.166  0.00  0.00    +0.000 C 
BRANCH   4   5
ATOM      5  C   UNL     1       7.924   5.753   2.234  0.00  0.00    +0.000 A 
ATOM      6  C   UNL     1       7.473   5.796   0.940  0.00  0.00    +0.000 A 
ATOM      7  C   UNL     1       8.023   6.682   0.024  0.00  0.00    +0.000 A 
ATOM      8  C   UNL     1       9.029   7.549   0.408  0.00  0.00    +0.000 A 
ATOM      9  C   UNL     1       9.481   7.512   1.726  0.00  0.00    +0.000 A 
ATOM     10  C   UNL     1       8.920   6.618   2.644  0.00  0.00    +0.000 A 
BRANCH   8  11
ATOM     11  O   UNL     1       9.598   8.418  -0.454  0.00  0.00    +0.000 OA
ATOM     12  C   UNL     1       8.865   8.854  -1.598  0.00  0.00    +0.000 C 
ENDBRANCH   8  11
ENDBRANCH   4   5
ENDBRANCH   1   3
BRANCH   1  13
ATOM     13  O   UNL     1       5.993   2.578   4.461  0.00  0.00    +0.000 OA
BRANCH  13  14
ATOM     14  C   UNL     1       6.015   1.663   5.553  0.00  0.00    +0.000 C 
BRANCH  14  15
ATOM     15  C   UNL     1       7.373   1.014   5.743  0.00  0.00    +0.000 C 
ATOM     16  C   UNL     1       8.451   1.431   4.784  0.00  0.00    +0.000 C 
ENDBRANCH  14  15
BRANCH  14  17
ATOM     17  C   UNL     1       5.027   0.580   5.264  0.00  0.00    +0.000 C 
BRANCH  17  18
ATOM     18  C   UNL     1       3.803   0.610   6.114  0.00  0.00    +0.000 C 
BRANCH  18  20
ATOM     19  C   UNL     1       1.434   0.964   5.238  0.00  0.00    +0.000 C 
ATOM     20  C   UNL     1       2.551   0.026   5.535  0.00  0.00    +0.000 C 
ENDBRANCH  18  20
ENDBRANCH  17  18
ENDBRANCH  14  17
ENDBRANCH  13  14
ENDBRANCH   1  13
TORSDOF 9
ENDMDL
MODEL 4
REMARK VINA RESULT:      -4.1      1.796      3.317
REMARK  Name = shuffle_control_esm0_ligand
REMARK  12 active torsions:
REMARK  status: ('A' for Active; 'I' for Inactive)
REMARK    1  A    between atoms: C_1  and  C_2
REMARK    2  A    between atoms: C_2  and  C_3
REMARK    3  A    between atoms: C_3  and  C_4
REMARK    4  A    between atoms: C_4  and  C_5
REMARK    5  A    between atoms: C_5  and  C_6
REMARK    6  A    between atoms: C_5  and  O_8
REMARK    7  A    between atoms: C_6  and  C_7
REMARK    8  A    between atoms: O_8  and  C_9
REMARK    9  A    between atoms: C_9  and  C_11
REMARK   10  A    between atoms: C_12  and  C_13
REMARK   11  A    between atoms: C_16  and  O_17
REMARK   12  A    between atoms: O_17  and  C_18
REMARK                            x       y       z     vdW  Elec       q    Type
REMARK                         _______ _______ _______ _____ _____    ______ ____
ROOT
ATOM      1  C   UNL     1       8.998   4.412   5.958  0.00  0.00    +0.000 C 
ATOM      2  O   UNL     1       8.463   4.675   6.989  0.00  0.00    +0.000 OA
ENDROOT
BRANCH   1   3
ATOM      3  C   UNL     1       8.887   5.252   4.725  0.00  0.00    +0.000 C 
ATOM      4  C   UNL     1       7.935   5.029   3.836  0.00  0.00    +0.000 C 
BRANCH   4   5
ATOM      5  C   UNL     1       7.848   5.744   2.527  0.00  0.00    +0.000 A 
ATOM      6  C   UNL     1       6.687   5.643   1.805  0.00  0.00    +0.000 A 
ATOM      7  C   UNL     1       6.562   6.262   0.570  0.00  0.00    +0.000 A 
ATOM      8  C   UNL     1       7.606   7.005   0.051  0.00  0.00    +0.000 A 
ATOM      9  C   UNL     1       8.783   7.115   0.789  0.00  0.00    +0.000 A 
ATOM     10  C   UNL     1       8.902   6.491   2.035  0.00  0.00    +0.000 A 
BRANCH   8  11
ATOM     11  O   UNL     1       7.528   7.614  -1.152  0.00  0.00    +0.000 OA
ATOM     12  C   UNL     1       8.728   7.965  -1.838  0.00  0.00    +0.000 C 
ENDBRANCH   8  11
ENDBRANCH   4   5
ENDBRANCH   1   3
BRANCH   1  13
ATOM     13  O   UNL     1       9.761   3.301   5.812  0.00  0.00    +0.000 OA
BRANCH  13  14
ATOM     14  C   UNL     1       9.286   1.997   6.133  0.00  0.00    +0.000 C 
BRANCH  14  15
ATOM     15  C   UNL     1      10.412   1.007   6.363  0.00  0.00    +0.000 C 
ATOM     16  C   UNL     1      10.391  -0.234   5.519  0.00  0.00    +0.000 C 
ENDBRANCH  14  15
BRANCH  14  17
ATOM     17  C   UNL     1       8.473   1.507   4.979  0.00  0.00    +0.000 C 
BRANCH  17  18
ATOM     18  C   UNL     1       7.056   1.182   5.308  0.00  0.00    +0.000 C 
BRANCH  18  20
ATOM     19  C   UNL     1       5.423   3.080   5.793  0.00  0.00    +0.000 C 
ATOM     20  C   UNL     1       6.003   2.124   4.810  0.00  0.00    +0.000 C 
ENDBRANCH  18  20
ENDBRANCH  17  18
ENDBRANCH  14  17
ENDBRANCH  13  14
ENDBRANCH   1  13
TORSDOF 9
ENDMDL
MODEL 5
REMARK VINA RESULT:      -4.1      2.373      7.209
REMARK  Name = shuffle_control_esm0_ligand
REMARK  12 active torsions:
REMARK  status: ('A' for Active; 'I' for Inactive)
REMARK    1  A    between atoms: C_1  and  C_2
REMARK    2  A    between atoms: C_2  and  C_3
REMARK    3  A    between atoms: C_3  and  C_4
REMARK    4  A    between atoms: C_4  and  C_5
REMARK    5  A    between atoms: C_5  and  C_6
REMARK    6  A    between atoms: C_5  and  O_8
REMARK    7  A    between atoms: C_6  and  C_7
REMARK    8  A    between atoms: O_8  and  C_9
REMARK    9  A    between atoms: C_9  and  C_11
REMARK   10  A    between atoms: C_12  and  C_13
REMARK   11  A    between atoms: C_16  and  O_17
REMARK   12  A    between atoms: O_17  and  C_18
REMARK                            x       y       z     vdW  Elec       q    Type
REMARK                         _______ _______ _______ _____ _____    ______ ____
ROOT
ATOM      1  C   UNL     1       8.689   7.192   3.252  0.00  0.00    +0.000 C 
ATOM      2  O   UNL     1       8.749   8.037   4.089  0.00  0.00    +0.000 OA
ENDROOT
BRANCH   1   3
ATOM      3  C   UNL     1       8.779   5.728   3.539  0.00  0.00    +0.000 C 
ATOM      4  C   UNL     1       8.250   5.218   4.637  0.00  0.00    +0.000 C 
BRANCH   4   5
ATOM      5  C   UNL     1       8.416   3.791   5.045  0.00  0.00    +0.000 A 
ATOM      6  C   UNL     1       7.484   2.878   4.621  0.00  0.00    +0.000 A 
ATOM      7  C   UNL     1       7.574   1.545   4.994  0.00  0.00    +0.000 A 
ATOM      8  C   UNL     1       8.615   1.110   5.793  0.00  0.00    +0.000 A 
ATOM      9  C   UNL     1       9.567   2.036   6.217  0.00  0.00    +0.000 A 
ATOM     10  C   UNL     1       9.473   3.379   5.834  0.00  0.00    +0.000 A 
BRANCH   8  11
ATOM     11  O   UNL     1       8.732  -0.175   6.187  0.00  0.00    +0.000 OA
ATOM     12  C   UNL     1      10.030  -0.738   6.367  0.00  0.00    +0.000 C 
ENDBRANCH   8  11
ENDBRANCH   4   5
ENDBRANCH   1   3
BRANCH   1  13
ATOM     13  O   UNL     1       8.541   7.498   1.939  0.00  0.00    +0.000 OA
BRANCH  13  14
ATOM     14  C   UNL     1       8.206   6.521   0.958  0.00  0.00    +0.000 C 
BRANCH  14  15
ATOM     15  C   UNL     1       9.048   6.644  -0.298  0.00  0.00    +0.000 C 
ATOM     16  C   UNL     1       8.911   7.925  -1.070  0.00  0.00    +0.000 C 
ENDBRANCH  14  15
BRANCH  14  17
ATOM     17  C   UNL     1       6.777   6.727   0.573  0.00  0.00    +0.000 C 
BRANCH  17  18
ATOM     18  C   UNL     1       5.888   5.559   0.829  0.00  0.00    +0.000 C 
BRANCH  18  20
ATOM     19  C   UNL     1       5.033   6.554   3.017  0.00  0.00    +0.000 C 
ATOM     20  C   UNL     1       5.423   5.347   2.237  0.00  0.00    +0.000 C 
ENDBRANCH  18  20
ENDBRANCH  17  18
ENDBRANCH  14  17
ENDBRANCH  13  14
ENDBRANCH   1  13
TORSDOF 9
ENDMDL
MODEL 6
REMARK VINA RESULT:      -4.0      3.124      5.316
REMARK  Name = shuffle_control_esm0_ligand
REMARK  12 active torsions:
REMARK  status: ('A' for Active; 'I' for Inactive)
REMARK    1  A    between atoms: C_1  and  C_2
REMARK    2  A    between atoms: C_2  and  C_3
REMARK    3  A    between atoms: C_3  and  C_4
REMARK    4  A    between atoms: C_4  and  C_5
REMARK    5  A    between atoms: C_5  and  C_6
REMARK    6  A    between atoms: C_5  and  O_8
REMARK    7  A    between atoms: C_6  and  C_7
REMARK    8  A    between atoms: O_8  and  C_9
REMARK    9  A    between atoms: C_9  and  C_11
REMARK   10  A    between atoms: C_12  and  C_13
REMARK   11  A    between atoms: C_16  and  O_17
REMARK   12  A    between atoms: O_17  and  C_18
REMARK                            x       y       z     vdW  Elec       q    Type
REMARK                         _______ _______ _______ _____ _____    ______ ____
ROOT
ATOM      1  C   UNL     1       4.050  -0.800   5.395  0.00  0.00    +0.000 C 
ATOM      2  O   UNL     1       4.544  -1.856   5.641  0.00  0.00    +0.000 OA
ENDROOT
BRANCH   1   3
ATOM      3  C   UNL     1       4.832   0.416   5.012  0.00  0.00    +0.000 C 
ATOM      4  C   UNL     1       6.037   0.632   5.511  0.00  0.00    +0.000 C 
BRANCH   4   5
ATOM      5  C   UNL     1       6.814   1.885   5.272  0.00  0.00    +0.000 A 
ATOM      6  C   UNL     1       6.210   2.906   4.584  0.00  0.00    +0.000 A 
ATOM      7  C   UNL     1       6.894   4.081   4.308  0.00  0.00    +0.000 A 
ATOM      8  C   UNL     1       8.198   4.247   4.735  0.00  0.00    +0.000 A 
ATOM      9  C   UNL     1       8.810   3.212   5.442  0.00  0.00    +0.000 A 
ATOM     10  C   UNL     1       8.113   2.032   5.719  0.00  0.00    +0.000 A 
BRANCH   8  11
ATOM     11  O   UNL     1       8.903   5.369   4.478  0.00  0.00    +0.000 OA
ATOM     12  C   UNL     1       9.143   6.303   5.529  0.00  0.00    +0.000 C 
ENDBRANCH   8  11
ENDBRANCH   4   5
ENDBRANCH   1   3
BRANCH   1  13
ATOM     13  O   UNL     1       2.710  -0.608   5.452  0.00  0.00    +0.000 OA
BRANCH  13  14
ATOM     14  C   UNL     1       2.090   0.181   6.463  0.00  0.00    +0.000 C 
BRANCH  14  15
ATOM     15  C   UNL     1       1.572  -0.654   7.620  0.00  0.00    +0.000 C 
ATOM     16  C   UNL     1       0.098  -0.573   7.892  0.00  0.00    +0.000 C 
ENDBRANCH  14  15
BRANCH  14  17
ATOM     17  C   UNL     1       0.924   0.884   5.847  0.00  0.00    +0.000 C 
BRANCH  17  18
ATOM     18  C   UNL     1       1.045   2.369   5.800  0.00  0.00    +0.000 C 
BRANCH  18  20
ATOM     19  C   UNL     1       2.860   4.116   5.401  0.00  0.00    +0.000 C 
ATOM     20  C   UNL     1       2.361   2.963   6.199  0.00  0.00    +0.000 C 
ENDBRANCH  18  20
ENDBRANCH  17  18
ENDBRANCH  14  17
ENDBRANCH  13  14
ENDBRANCH   1  13
TORSDOF 9
ENDMDL
MODEL 7
REMARK VINA RESULT:      -4.0      2.023      6.808
REMARK  Name = shuffle_control_esm0_ligand
REMARK  12 active torsions:
REMARK  status: ('A' for Active; 'I' for Inactive)
REMARK    1  A    between atoms: C_1  and  C_2
REMARK    2  A    between atoms: C_2  and  C_3
REMARK    3  A    between atoms: C_3  and  C_4
REMARK    4  A    between atoms: C_4  and  C_5
REMARK    5  A    between atoms: C_5  and  C_6
REMARK    6  A    between atoms: C_5  and  O_8
REMARK    7  A    between atoms: C_6  and  C_7
REMARK    8  A    between atoms: O_8  and  C_9
REMARK    9  A    between atoms: C_9  and  C_11
REMARK   10  A    between atoms: C_12  and  C_13
REMARK   11  A    between atoms: C_16  and  O_17
REMARK   12  A    between atoms: O_17  and  C_18
REMARK                            x       y       z     vdW  Elec       q    Type
REMARK                         _______ _______ _______ _____ _____    ______ ____
ROOT
ATOM      1  C   UNL     1       4.802   5.270   3.636  0.00  0.00    +0.000 C 
ATOM      2  O   UNL     1       4.064   6.111   4.046  0.00  0.00    +0.000 OA
ENDROOT
BRANCH   1   3
ATOM      3  C   UNL     1       5.454   4.241   4.503  0.00  0.00    +0.000 C 
ATOM      4  C   UNL     1       6.480   3.535   4.061  0.00  0.00    +0.000 C 
BRANCH   4   5
ATOM      5  C   UNL     1       7.092   2.406   4.825  0.00  0.00    +0.000 A 
ATOM      6  C   UNL     1       6.264   1.440   5.337  0.00  0.00    +0.000 A 
ATOM      7  C   UNL     1       6.775   0.385   6.079  0.00  0.00    +0.000 A 
ATOM      8  C   UNL     1       8.135   0.283   6.305  0.00  0.00    +0.000 A 
ATOM      9  C   UNL     1       8.978   1.261   5.778  0.00  0.00    +0.000 A 
ATOM     10  C   UNL     1       8.456   2.320   5.028  0.00  0.00    +0.000 A 
BRANCH   8  11
ATOM     11  O   UNL     1       8.671  -0.721   7.031  0.00  0.00    +0.000 OA
ATOM     12  C   UNL     1       9.774  -0.451   7.894  0.00  0.00    +0.000 C 
ENDBRANCH   8  11
ENDBRANCH   4   5
ENDBRANCH   1   3
BRANCH   1  13
ATOM     13  O   UNL     1       5.125   5.183   2.323  0.00  0.00    +0.000 OA
BRANCH  13  14
ATOM     14  C   UNL     1       5.823   6.216   1.634  0.00  0.00    +0.000 C 
BRANCH  14  15
ATOM     15  C   UNL     1       5.046   6.755   0.448  0.00  0.00    +0.000 C 
ATOM     16  C   UNL     1       3.817   7.557   0.766  0.00  0.00    +0.000 C 
ENDBRANCH  14  15
BRANCH  14  17
ATOM     17  C   UNL     1       7.103   5.641   1.120  0.00  0.00    +0.000 C 
BRANCH  17  18
ATOM     18  C   UNL     1       8.334   6.188   1.759  0.00  0.00    +0.000 C 
BRANCH  18  20
ATOM     19  C   UNL     1       9.120   6.709  -0.611  0.00  0.00    +0.000 C 
ATOM     20  C   UNL     1       9.400   6.720   0.852  0.00  0.00    +0.000 C 
ENDBRANCH  18  20
ENDBRANCH  17  18
ENDBRANCH  14  17
ENDBRANCH  13  14
ENDBRANCH   1  13
TORSDOF 9
ENDMDL
MODEL 8
REMARK VINA RESULT:      -4.0      2.493      4.832
REMARK  Name = shuffle_control_esm0_ligand
REMARK  12 active torsions:
REMARK  status: ('A' for Active; 'I' for Inactive)
REMARK    1  A    between atoms: C_1  and  C_2
REMARK    2  A    between atoms: C_2  and  C_3
REMARK    3  A    between atoms: C_3  and  C_4
REMARK    4  A    between atoms: C_4  and  C_5
REMARK    5  A    between atoms: C_5  and  C_6
REMARK    6  A    between atoms: C_5  and  O_8
REMARK    7  A    between atoms: C_6  and  C_7
REMARK    8  A    between atoms: O_8  and  C_9
REMARK    9  A    between atoms: C_9  and  C_11
REMARK   10  A    between atoms: C_12  and  C_13
REMARK   11  A    between atoms: C_16  and  O_17
REMARK   12  A    between atoms: O_17  and  C_18
REMARK                            x       y       z     vdW  Elec       q    Type
REMARK                         _______ _______ _______ _____ _____    ______ ____
ROOT
ATOM      1  C   UNL     1       6.090  -0.369   6.766  0.00  0.00    +0.000 C 
ATOM      2  O   UNL     1       6.850  -0.886   7.522  0.00  0.00    +0.000 OA
ENDROOT
BRANCH   1   3
ATOM      3  C   UNL     1       6.142   1.077   6.390  0.00  0.00    +0.000 C 
ATOM      4  C   UNL     1       6.328   1.446   5.135  0.00  0.00    +0.000 C 
BRANCH   4   5
ATOM      5  C   UNL     1       6.519   2.866   4.714  0.00  0.00    +0.000 A 
ATOM      6  C   UNL     1       5.407   3.621   4.441  0.00  0.00    +0.000 A 
ATOM      7  C   UNL     1       5.526   4.937   4.018  0.00  0.00    +0.000 A 
ATOM      8  C   UNL     1       6.774   5.515   3.876  0.00  0.00    +0.000 A 
ATOM      9  C   UNL     1       7.905   4.751   4.162  0.00  0.00    +0.000 A 
ATOM     10  C   UNL     1       7.776   3.425   4.590  0.00  0.00    +0.000 A 
BRANCH   8  11
ATOM     11  O   UNL     1       6.934   6.788   3.457  0.00  0.00    +0.000 OA
ATOM     12  C   UNL     1       8.219   7.227   3.021  0.00  0.00    +0.000 C 
ENDBRANCH   8  11
ENDBRANCH   4   5
ENDBRANCH   1   3
BRANCH   1  13
ATOM     13  O   UNL     1       5.086  -1.064   6.177  0.00  0.00    +0.000 OA
BRANCH  13  14
ATOM     14  C   UNL     1       3.718  -0.884   6.530  0.00  0.00    +0.000 C 
BRANCH  14  15
ATOM     15  C   UNL     1       3.061  -2.171   6.993  0.00  0.00    +0.000 C 
ATOM     16  C   UNL     1       1.838  -2.024   7.851  0.00  0.00    +0.000 C 
ENDBRANCH  14  15
BRANCH  14  17
ATOM     17  C   UNL     1       2.989  -0.409   5.316  0.00  0.00    +0.000 C 
BRANCH  17  18
ATOM     18  C   UNL     1       2.393   0.952   5.440  0.00  0.00    +0.000 C 
BRANCH  18  20
ATOM     19  C   UNL     1       0.033   0.901   6.406  0.00  0.00    +0.000 C 
ATOM     20  C   UNL     1       0.917   1.078   5.221  0.00  0.00    +0.000 C 
ENDBRANCH  18  20
ENDBRANCH  17  18
ENDBRANCH  14  17
ENDBRANCH  13  14
ENDBRANCH   1  13
TORSDOF 9
ENDMDL
MODEL 9
REMARK VINA RESULT:      -4.0      3.580      7.995
REMARK  Name = shuffle_control_esm0_ligand
REMARK  12 active torsions:
REMARK  status: ('A' for Active; 'I' for Inactive)
REMARK    1  A    between atoms: C_1  and  C_2
REMARK    2  A    between atoms: C_2  and  C_3
REMARK    3  A    between atoms: C_3  and  C_4
REMARK    4  A    between atoms: C_4  and  C_5
REMARK    5  A    between atoms: C_5  and  C_6
REMARK    6  A    between atoms: C_5  and  O_8
REMARK    7  A    between atoms: C_6  and  C_7
REMARK    8  A    between atoms: O_8  and  C_9
REMARK    9  A    between atoms: C_9  and  C_11
REMARK   10  A    between atoms: C_12  and  C_13
REMARK   11  A    between atoms: C_16  and  O_17
REMARK   12  A    between atoms: O_17  and  C_18
REMARK                            x       y       z     vdW  Elec       q    Type
REMARK                         _______ _______ _______ _____ _____    ______ ____
ROOT
ATOM      1  C   UNL     1       5.430   0.177   5.838  0.00  0.00    +0.000 C 
ATOM      2  O   UNL     1       6.039  -0.696   6.373  0.00  0.00    +0.000 OA
ENDROOT
BRANCH   1   3
ATOM      3  C   UNL     1       4.031   0.560   6.200  0.00  0.00    +0.000 C 
ATOM      4  C   UNL     1       3.120  -0.363   6.454  0.00  0.00    +0.000 C 
BRANCH   4   5
ATOM      5  C   UNL     1       1.678  -0.052   6.694  0.00  0.00    +0.000 A 
ATOM      6  C   UNL     1       1.032  -0.701   7.715  0.00  0.00    +0.000 A 
ATOM      7  C   UNL     1      -0.313  -0.473   7.965  0.00  0.00    +0.000 A 
ATOM      8  C   UNL     1      -1.024   0.427   7.192  0.00  0.00    +0.000 A 
ATOM      9  C   UNL     1      -0.366   1.094   6.160  0.00  0.00    +0.000 A 
ATOM     10  C   UNL     1       0.992   0.860   5.916  0.00  0.00    +0.000 A 
BRANCH   8  11
ATOM     11  O   UNL     1      -2.337   0.670   7.395  0.00  0.00    +0.000 OA
ATOM     12  C   UNL     1      -3.080  -0.175   8.271  0.00  0.00    +0.000 C 
ENDBRANCH   8  11
ENDBRANCH   4   5
ENDBRANCH   1   3
BRANCH   1  13
ATOM     13  O   UNL     1       5.966   0.904   4.827  0.00  0.00    +0.000 OA
BRANCH  13  14
ATOM     14  C   UNL     1       6.743   2.076   5.054  0.00  0.00    +0.000 C 
BRANCH  14  15
ATOM     15  C   UNL     1       6.115   3.318   4.449  0.00  0.00    +0.000 C 
ATOM     16  C   UNL     1       7.059   4.303   3.821  0.00  0.00    +0.000 C 
ENDBRANCH  14  15
BRANCH  14  17
ATOM     17  C   UNL     1       8.075   1.876   4.409  0.00  0.00    +0.000 C 
BRANCH  17  18
ATOM     18  C   UNL     1       9.126   1.321   5.308  0.00  0.00    +0.000 C 
BRANCH  18  20
ATOM     19  C   UNL     1      10.076   3.500   6.232  0.00  0.00    +0.000 C 
ATOM     20  C   UNL     1       9.518   2.145   6.496  0.00  0.00    +0.000 C 
ENDBRANCH  18  20
ENDBRANCH  17  18
ENDBRANCH  14  17
ENDBRANCH  13  14
ENDBRANCH   1  13
TORSDOF 9
ENDMDL
