REMARK  Name = bg33_4_ligand
REMARK  12 active torsions:
REMARK  status: ('A' for Active; 'I' for Inactive)
REMARK    1  A    between atoms: C_1  and  C_2
REMARK    2  A    between atoms: C_2  and  C_3
REMARK    3  A    between atoms: C_3  and  C_4
REMARK    4  A    between atoms: C_4  and  C_5
REMARK    5  A    between atoms: C_5  and  C_6
REMARK    6  A    between atoms: C_5  and  O_8
REMARK    7  A    between atoms: C_6  and  C_7
REMARK    8  A    between atoms: O_8  and  C_9
REMARK    9  A    between atoms: C_9  and  C_11
REMARK   10  A    between atoms: C_12  and  C_13
REMARK   11  A    between atoms: C_16  and  O_17
REMARK   12  A    between atoms: O_17  and  C_18
REMARK                            x       y       z     vdW  Elec       q    Type
REMARK                         _______ _______ _______ _____ _____    ______ ____
ROOT
ATOM      1  C   UNL     1       0.206  -6.537  -8.581  0.00  0.00    +0.000 C 
ATOM      2  O   UNL     1       0.412  -7.147  -9.673  0.00  0.00    +0.000 OA
ENDROOT
BRANCH   1   3
ATOM      3  C   UNL     1      -0.091  -7.225  -7.314  0.00  0.00    +0.000 C 
ATOM      4  C   UNL     1      -0.494  -6.428  -6.192  0.00  0.00    +0.000 C 
BRANCH   4   5
ATOM      5  C   UNL     1      -0.714  -7.058  -4.826  0.00  0.00    +0.000 A 
ATOM      6  C   UNL     1      -1.159  -8.353  -4.668  0.00  0.00    +0.000 A 
ATOM      7  C   UNL     1      -1.353  -8.923  -3.362  0.00  0.00    +0.000 A 
ATOM      8  C   UNL     1      -1.079  -8.200  -2.188  0.00  0.00    +0.000 A 
ATOM      9  C   UNL     1      -0.615  -6.900  -2.376  0.00  0.00    +0.000 A 
ATOM     10  C   UNL     1      -0.422  -6.351  -3.651  0.00  0.00    +0.000 A 
BRANCH   8  11
ATOM     11  O   UNL     1      -1.191  -8.711  -0.910  0.00  0.00    +0.000 OA
ATOM     12  C   UNL     1      -1.566 -10.103  -0.751  0.00  0.00    +0.000 C 
ENDBRANCH   8  11
ENDBRANCH   4   5
ENDBRANCH   1   3
BRANCH   1  13
ATOM     13  O   UNL     1       0.404  -5.088  -8.495  0.00  0.00    +0.000 OA
BRANCH  13  14
ATOM     14  C   UNL     1       0.466  -4.338  -9.660  0.00  0.00    +0.000 C 
BRANCH  14  15
ATOM     15  C   UNL     1       2.003  -4.281  -9.900  0.00  0.00    +0.000 C 
ATOM     16  C   UNL     1       2.344  -3.834 -11.359  0.00  0.00    +0.000 C 
ENDBRANCH  14  15
BRANCH  14  17
ATOM     17  C   UNL     1      -0.227  -2.920  -9.406  0.00  0.00    +0.000 C 
BRANCH  17  18
ATOM     18  C   UNL     1      -1.306  -3.045  -8.361  0.00  0.00    +0.000 C 
BRANCH  18  20
ATOM     19  C   UNL     1      -3.211  -1.840  -7.201  0.00  0.00    +0.000 C 
ATOM     20  C   UNL     1      -2.253  -1.847  -8.360  0.00  0.00    +0.000 C 
ENDBRANCH  18  20
ENDBRANCH  17  18
ENDBRANCH  14  17
ENDBRANCH  13  14
ENDBRANCH   1  13
TORSDOF 9
