MODEL 1
REMARK VINA RESULT:      -4.0      0.000      0.000
REMARK  Name = bg33_4_ligand
REMARK  12 active torsions:
REMARK  status: ('A' for Active; 'I' for Inactive)
REMARK    1  A    between atoms: C_1  and  C_2
REMARK    2  A    between atoms: C_2  and  C_3
REMARK    3  A    between atoms: C_3  and  C_4
REMARK    4  A    between atoms: C_4  and  C_5
REMARK    5  A    between atoms: C_5  and  C_6
REMARK    6  A    between atoms: C_5  and  O_8
REMARK    7  A    between atoms: C_6  and  C_7
REMARK    8  A    between atoms: O_8  and  C_9
REMARK    9  A    between atoms: C_9  and  C_11
REMARK   10  A    between atoms: C_12  and  C_13
REMARK   11  A    between atoms: C_16  and  O_17
REMARK   12  A    between atoms: O_17  and  C_18
REMARK                            x       y       z     vdW  Elec       q    Type
REMARK                         _______ _______ _______ _____ _____    ______ ____
ROOT
ATOM      1  C   UNL     1       9.641  -4.267  -1.733  0.00  0.00    +0.000 C 
ATOM      2  O   UNL     1      10.495  -4.203  -0.797  0.00  0.00    +0.000 OA
ENDROOT
BRANCH   1   3
ATOM      3  C   UNL     1       9.454  -3.202  -2.731  0.00  0.00    +0.000 C 
ATOM      4  C   UNL     1       9.743  -1.853  -2.339  0.00  0.00    +0.000 C 
BRANCH   4   5
ATOM      5  C   UNL     1       9.473  -0.691  -3.283  0.00  0.00    +0.000 A 
ATOM      6  C   UNL     1       8.521  -0.749  -4.278  0.00  0.00    +0.000 A 
ATOM      7  C   UNL     1       8.285   0.368  -5.153  0.00  0.00    +0.000 A 
ATOM      8  C   UNL     1       8.992   1.576  -5.022  0.00  0.00    +0.000 A 
ATOM      9  C   UNL     1       9.936   1.613  -3.998  0.00  0.00    +0.000 A 
ATOM     10  C   UNL     1      10.158   0.524  -3.145  0.00  0.00    +0.000 A 
BRANCH   8  11
ATOM     11  O   UNL     1       8.770   2.700  -5.793  0.00  0.00    +0.000 OA
ATOM     12  C   UNL     1       8.218   3.879  -5.154  0.00  0.00    +0.000 C 
ENDBRANCH   8  11
ENDBRANCH   4   5
ENDBRANCH   1   3
BRANCH   1  13
ATOM     13  O   UNL     1       8.883  -5.500  -1.958  0.00  0.00    +0.000 OA
BRANCH  13  14
ATOM     14  C   UNL     1       7.715  -5.723  -1.244  0.00  0.00    +0.000 C 
BRANCH  14  15
ATOM     15  C   UNL     1       8.131  -6.932  -0.356  0.00  0.00    +0.000 C 
ATOM     16  C   UNL     1       6.891  -7.771   0.095  0.00  0.00    +0.000 C 
ENDBRANCH  14  15
BRANCH  14  17
ATOM     17  C   UNL     1       6.524  -6.020  -2.268  0.00  0.00    +0.000 C 
BRANCH  17  18
ATOM     18  C   UNL     1       7.038  -6.006  -3.685  0.00  0.00    +0.000 C 
BRANCH  18  20
ATOM     19  C   UNL     1       4.567  -5.739  -4.183  0.00  0.00    +0.000 C 
ATOM     20  C   UNL     1       5.973  -5.557  -4.683  0.00  0.00    +0.000 C 
ENDBRANCH  18  20
ENDBRANCH  17  18
ENDBRANCH  14  17
ENDBRANCH  13  14
ENDBRANCH   1  13
TORSDOF 9
ENDMDL
MODEL 2
REMARK VINA RESULT:      -4.0      1.778      7.881
REMARK  Name = bg33_4_ligand
REMARK  12 active torsions:
REMARK  status: ('A' for Active; 'I' for Inactive)
REMARK    1  A    between atoms: C_1  and  C_2
REMARK    2  A    between atoms: C_2  and  C_3
REMARK    3  A    between atoms: C_3  and  C_4
REMARK    4  A    between atoms: C_4  and  C_5
REMARK    5  A    between atoms: C_5  and  C_6
REMARK    6  A    between atoms: C_5  and  O_8
REMARK    7  A    between atoms: C_6  and  C_7
REMARK    8  A    between atoms: O_8  and  C_9
REMARK    9  A    between atoms: C_9  and  C_11
REMARK   10  A    between atoms: C_12  and  C_13
REMARK   11  A    between atoms: C_16  and  O_17
REMARK   12  A    between atoms: O_17  and  C_18
REMARK                            x       y       z     vdW  Elec       q    Type
REMARK                         _______ _______ _______ _____ _____    ______ ____
ROOT
ATOM      1  C   UNL     1       9.367   1.103  -5.210  0.00  0.00    +0.000 C 
ATOM      2  O   UNL     1      10.191   2.052  -5.049  0.00  0.00    +0.000 OA
ENDROOT
BRANCH   1   3
ATOM      3  C   UNL     1       9.139   0.050  -4.206  0.00  0.00    +0.000 C 
ATOM      4  C   UNL     1       9.730  -1.236  -4.432  0.00  0.00    +0.000 C 
BRANCH   4   5
ATOM      5  C   UNL     1       9.451  -2.399  -3.493  0.00  0.00    +0.000 A 
ATOM      6  C   UNL     1       9.765  -2.362  -2.151  0.00  0.00    +0.000 A 
ATOM      7  C   UNL     1       9.484  -3.477  -1.287  0.00  0.00    +0.000 A 
ATOM      8  C   UNL     1       8.859  -4.644  -1.759  0.00  0.00    +0.000 A 
ATOM      9  C   UNL     1       8.538  -4.649  -3.115  0.00  0.00    +0.000 A 
ATOM     10  C   UNL     1       8.809  -3.558  -3.952  0.00  0.00    +0.000 A 
BRANCH   8  11
ATOM     11  O   UNL     1       8.513  -5.722  -0.968  0.00  0.00    +0.000 OA
ATOM     12  C   UNL     1       7.112  -6.083  -0.864  0.00  0.00    +0.000 C 
ENDBRANCH   8  11
ENDBRANCH   4   5
ENDBRANCH   1   3
BRANCH   1  13
ATOM     13  O   UNL     1       8.472   1.089  -6.370  0.00  0.00    +0.000 OA
BRANCH  13  14
ATOM     14  C   UNL     1       7.112   1.288  -6.183  0.00  0.00    +0.000 C 
BRANCH  14  15
ATOM     15  C   UNL     1       6.518   0.332  -7.258  0.00  0.00    +0.000 C 
ATOM     16  C   UNL     1       7.074  -1.122  -7.109  0.00  0.00    +0.000 C 
ENDBRANCH  14  15
BRANCH  14  17
ATOM     17  C   UNL     1       6.775   2.836  -6.402  0.00  0.00    +0.000 C 
BRANCH  17  18
ATOM     18  C   UNL     1       6.510   3.505  -5.078  0.00  0.00    +0.000 C 
BRANCH  18  20
ATOM     19  C   UNL     1       8.409   5.018  -5.807  0.00  0.00    +0.000 C 
ATOM     20  C   UNL     1       7.656   4.419  -4.651  0.00  0.00    +0.000 C 
ENDBRANCH  18  20
ENDBRANCH  17  18
ENDBRANCH  14  17
ENDBRANCH  13  14
ENDBRANCH   1  13
TORSDOF 9
ENDMDL
MODEL 3
REMARK VINA RESULT:      -3.9      2.566      8.353
REMARK  Name = bg33_4_ligand
REMARK  12 active torsions:
REMARK  status: ('A' for Active; 'I' for Inactive)
REMARK    1  A    between atoms: C_1  and  C_2
REMARK    2  A    between atoms: C_2  and  C_3
REMARK    3  A    between atoms: C_3  and  C_4
REMARK    4  A    between atoms: C_4  and  C_5
REMARK    5  A    between atoms: C_5  and  C_6
REMARK    6  A    between atoms: C_5  and  O_8
REMARK    7  A    between atoms: C_6  and  C_7
REMARK    8  A    between atoms: O_8  and  C_9
REMARK    9  A    between atoms: C_9  and  C_11
REMARK   10  A    between atoms: C_12  and  C_13
REMARK   11  A    between atoms: C_16  and  O_17
REMARK   12  A    between atoms: O_17  and  C_18
REMARK                            x       y       z     vdW  Elec       q    Type
REMARK                         _______ _______ _______ _____ _____    ______ ____
ROOT
ATOM      1  C   UNL     1       7.713  -0.169  -7.497  0.00  0.00    +0.000 C 
ATOM      2  O   UNL     1       7.560  -0.562  -8.692  0.00  0.00    +0.000 OA
ENDROOT
BRANCH   1   3
ATOM      3  C   UNL     1       8.071  -1.070  -6.389  0.00  0.00    +0.000 C 
ATOM      4  C   UNL     1       8.587  -0.486  -5.185  0.00  0.00    +0.000 C 
BRANCH   4   5
ATOM      5  C   UNL     1       9.077  -1.360  -4.042  0.00  0.00    +0.000 A 
ATOM      6  C   UNL     1       9.597  -0.837  -2.877  0.00  0.00    +0.000 A 
ATOM      7  C   UNL     1      10.047  -1.690  -1.810  0.00  0.00    +0.000 A 
ATOM      8  C   UNL     1       9.959  -3.091  -1.892  0.00  0.00    +0.000 A 
ATOM      9  C   UNL     1       9.415  -3.592  -3.072  0.00  0.00    +0.000 A 
ATOM     10  C   UNL     1       8.972  -2.757  -4.106  0.00  0.00    +0.000 A 
BRANCH   8  11
ATOM     11  O   UNL     1      10.322  -3.958  -0.880  0.00  0.00    +0.000 OA
ATOM     12  C   UNL     1      10.104  -5.378  -1.074  0.00  0.00    +0.000 C 
ENDBRANCH   8  11
ENDBRANCH   4   5
ENDBRANCH   1   3
BRANCH   1  13
ATOM     13  O   UNL     1       7.684   1.261  -7.180  0.00  0.00    +0.000 OA
BRANCH  13  14
ATOM     14  C   UNL     1       6.463   1.910  -7.069  0.00  0.00    +0.000 C 
BRANCH  14  15
ATOM     15  C   UNL     1       6.649   3.076  -8.084  0.00  0.00    +0.000 C 
ATOM     16  C   UNL     1       5.546   3.060  -9.192  0.00  0.00    +0.000 C 
ENDBRANCH  14  15
BRANCH  14  17
ATOM     17  C   UNL     1       6.250   2.368  -5.552  0.00  0.00    +0.000 C 
BRANCH  17  18
ATOM     18  C   UNL     1       6.359   3.867  -5.438  0.00  0.00    +0.000 C 
BRANCH  18  20
ATOM     19  C   UNL     1       8.571   5.101  -5.533  0.00  0.00    +0.000 C 
ATOM     20  C   UNL     1       7.617   4.301  -4.690  0.00  0.00    +0.000 C 
ENDBRANCH  18  20
ENDBRANCH  17  18
ENDBRANCH  14  17
ENDBRANCH  13  14
ENDBRANCH   1  13
TORSDOF 9
ENDMDL
MODEL 4
REMARK VINA RESULT:      -3.9      1.835      7.734
REMARK  Name = bg33_4_ligand
REMARK  12 active torsions:
REMARK  status: ('A' for Active; 'I' for Inactive)
REMARK    1  A    between atoms: C_1  and  C_2
REMARK    2  A    between atoms: C_2  and  C_3
REMARK    3  A    between atoms: C_3  and  C_4
REMARK    4  A    between atoms: C_4  and  C_5
REMARK    5  A    between atoms: C_5  and  C_6
REMARK    6  A    between atoms: C_5  and  O_8
REMARK    7  A    between atoms: C_6  and  C_7
REMARK    8  A    between atoms: O_8  and  C_9
REMARK    9  A    between atoms: C_9  and  C_11
REMARK   10  A    between atoms: C_12  and  C_13
REMARK   11  A    between atoms: C_16  and  O_17
REMARK   12  A    between atoms: O_17  and  C_18
REMARK                            x       y       z     vdW  Elec       q    Type
REMARK                         _______ _______ _______ _____ _____    ______ ____
ROOT
ATOM      1  C   UNL     1      10.151   0.646  -3.030  0.00  0.00    +0.000 C 
ATOM      2  O   UNL     1      10.569   1.318  -2.041  0.00  0.00    +0.000 OA
ENDROOT
BRANCH   1   3
ATOM      3  C   UNL     1       9.412  -0.620  -2.893  0.00  0.00    +0.000 C 
ATOM      4  C   UNL     1      10.140  -1.785  -2.481  0.00  0.00    +0.000 C 
BRANCH   4   5
ATOM      5  C   UNL     1       9.466  -3.146  -2.421  0.00  0.00    +0.000 A 
ATOM      6  C   UNL     1       9.386  -3.885  -1.260  0.00  0.00    +0.000 A 
ATOM      7  C   UNL     1       8.737  -5.168  -1.233  0.00  0.00    +0.000 A 
ATOM      8  C   UNL     1       8.136  -5.720  -2.377  0.00  0.00    +0.000 A 
ATOM      9  C   UNL     1       8.216  -4.946  -3.533  0.00  0.00    +0.000 A 
ATOM     10  C   UNL     1       8.845  -3.694  -3.552  0.00  0.00    +0.000 A 
BRANCH   8  11
ATOM     11  O   UNL     1       7.450  -6.919  -2.400  0.00  0.00    +0.000 OA
ATOM     12  C   UNL     1       6.136  -6.953  -3.013  0.00  0.00    +0.000 C 
ENDBRANCH   8  11
ENDBRANCH   4   5
ENDBRANCH   1   3
BRANCH   1  13
ATOM     13  O   UNL     1      10.256   1.185  -4.389  0.00  0.00    +0.000 OA
BRANCH  13  14
ATOM     14  C   UNL     1       9.122   1.679  -5.016  0.00  0.00    +0.000 C 
BRANCH  14  15
ATOM     15  C   UNL     1       8.970   0.677  -6.197  0.00  0.00    +0.000 C 
ATOM     16  C   UNL     1       7.595  -0.065  -6.153  0.00  0.00    +0.000 C 
ENDBRANCH  14  15
BRANCH  14  17
ATOM     17  C   UNL     1       9.385   3.195  -5.451  0.00  0.00    +0.000 C 
BRANCH  17  18
ATOM     18  C   UNL     1       8.205   4.057  -5.081  0.00  0.00    +0.000 C 
BRANCH  18  20
ATOM     19  C   UNL     1       5.724   3.535  -5.084  0.00  0.00    +0.000 C 
ATOM     20  C   UNL     1       6.965   3.729  -5.910  0.00  0.00    +0.000 C 
ENDBRANCH  18  20
ENDBRANCH  17  18
ENDBRANCH  14  17
ENDBRANCH  13  14
ENDBRANCH   1  13
TORSDOF 9
ENDMDL
MODEL 5
REMARK VINA RESULT:      -3.9      1.879      7.573
REMARK  Name = bg33_4_ligand
REMARK  12 active torsions:
REMARK  status: ('A' for Active; 'I' for Inactive)
REMARK    1  A    between atoms: C_1  and  C_2
REMARK    2  A    between atoms: C_2  and  C_3
REMARK    3  A    between atoms: C_3  and  C_4
REMARK    4  A    between atoms: C_4  and  C_5
REMARK    5  A    between atoms: C_5  and  C_6
REMARK    6  A    between atoms: C_5  and  O_8
REMARK    7  A    between atoms: C_6  and  C_7
REMARK    8  A    between atoms: O_8  and  C_9
REMARK    9  A    between atoms: C_9  and  C_11
REMARK   10  A    between atoms: C_12  and  C_13
REMARK   11  A    between atoms: C_16  and  O_17
REMARK   12  A    between atoms: O_17  and  C_18
REMARK                            x       y       z     vdW  Elec       q    Type
REMARK                         _______ _______ _______ _____ _____    ______ ____
ROOT
ATOM      1  C   UNL     1       9.425   0.439  -5.237  0.00  0.00    +0.000 C 
ATOM      2  O   UNL     1      10.130   0.307  -6.283  0.00  0.00    +0.000 OA
ENDROOT
BRANCH   1   3
ATOM      3  C   UNL     1       9.384  -0.562  -4.158  0.00  0.00    +0.000 C 
ATOM      4  C   UNL     1       9.247  -1.942  -4.524  0.00  0.00    +0.000 C 
BRANCH   4   5
ATOM      5  C   UNL     1       9.092  -3.019  -3.462  0.00  0.00    +0.000 A 
ATOM      6  C   UNL     1       9.576  -2.873  -2.180  0.00  0.00    +0.000 A 
ATOM      7  C   UNL     1       9.409  -3.908  -1.195  0.00  0.00    +0.000 A 
ATOM      8  C   UNL     1       8.729  -5.105  -1.483  0.00  0.00    +0.000 A 
ATOM      9  C   UNL     1       8.236  -5.219  -2.781  0.00  0.00    +0.000 A 
ATOM     10  C   UNL     1       8.396  -4.205  -3.735  0.00  0.00    +0.000 A 
BRANCH   8  11
ATOM     11  O   UNL     1       8.488  -6.108  -0.566  0.00  0.00    +0.000 OA
ATOM     12  C   UNL     1       7.209  -6.791  -0.606  0.00  0.00    +0.000 C 
ENDBRANCH   8  11
ENDBRANCH   4   5
ENDBRANCH   1   3
BRANCH   1  13
ATOM     13  O   UNL     1       8.714   1.693  -4.978  0.00  0.00    +0.000 OA
BRANCH  13  14
ATOM     14  C   UNL     1       7.745   2.125  -5.872  0.00  0.00    +0.000 C 
BRANCH  14  15
ATOM     15  C   UNL     1       7.338   3.488  -5.239  0.00  0.00    +0.000 C 
ATOM     16  C   UNL     1       5.802   3.748  -5.367  0.00  0.00    +0.000 C 
ENDBRANCH  14  15
BRANCH  14  17
ATOM     17  C   UNL     1       6.574   1.039  -5.938  0.00  0.00    +0.000 C 
BRANCH  17  18
ATOM     18  C   UNL     1       6.485   0.450  -7.322  0.00  0.00    +0.000 C 
BRANCH  18  20
ATOM     19  C   UNL     1       7.450  -1.851  -7.772  0.00  0.00    +0.000 C 
ATOM     20  C   UNL     1       6.262  -1.061  -7.296  0.00  0.00    +0.000 C 
ENDBRANCH  18  20
ENDBRANCH  17  18
ENDBRANCH  14  17
ENDBRANCH  13  14
ENDBRANCH   1  13
TORSDOF 9
ENDMDL
MODEL 6
REMARK VINA RESULT:      -3.8      2.182      3.859
REMARK  Name = bg33_4_ligand
REMARK  12 active torsions:
REMARK  status: ('A' for Active; 'I' for Inactive)
REMARK    1  A    between atoms: C_1  and  C_2
REMARK    2  A    between atoms: C_2  and  C_3
REMARK    3  A    between atoms: C_3  and  C_4
REMARK    4  A    between atoms: C_4  and  C_5
REMARK    5  A    between atoms: C_5  and  C_6
REMARK    6  A    between atoms: C_5  and  O_8
REMARK    7  A    between atoms: C_6  and  C_7
REMARK    8  A    between atoms: O_8  and  C_9
REMARK    9  A    between atoms: C_9  and  C_11
REMARK   10  A    between atoms: C_12  and  C_13
REMARK   11  A    between atoms: C_16  and  O_17
REMARK   12  A    between atoms: O_17  and  C_18
REMARK                            x       y       z     vdW  Elec       q    Type
REMARK                         _______ _______ _______ _____ _____    ______ ____
ROOT
ATOM      1  C   UNL     1       6.958  -7.206  -0.777  0.00  0.00    +0.000 C 
ATOM      2  O   UNL     1       6.594  -7.629   0.361  0.00  0.00    +0.000 OA
ENDROOT
BRANCH   1   3
ATOM      3  C   UNL     1       7.356  -5.812  -1.032  0.00  0.00    +0.000 C 
ATOM      4  C   UNL     1       8.538  -5.579  -1.810  0.00  0.00    +0.000 C 
BRANCH   4   5
ATOM      5  C   UNL     1       9.067  -4.170  -2.024  0.00  0.00    +0.000 A 
ATOM      6  C   UNL     1       9.778  -3.489  -1.060  0.00  0.00    +0.000 A 
ATOM      7  C   UNL     1      10.270  -2.158  -1.293  0.00  0.00    +0.000 A 
ATOM      8  C   UNL     1      10.070  -1.497  -2.517  0.00  0.00    +0.000 A 
ATOM      9  C   UNL     1       9.362  -2.213  -3.480  0.00  0.00    +0.000 A 
ATOM     10  C   UNL     1       8.890  -3.512  -3.250  0.00  0.00    +0.000 A 
BRANCH   8  11
ATOM     11  O   UNL     1      10.566  -0.244  -2.820  0.00  0.00    +0.000 OA
ATOM     12  C   UNL     1      10.045   0.445  -3.985  0.00  0.00    +0.000 C 
ENDBRANCH   8  11
ENDBRANCH   4   5
ENDBRANCH   1   3
BRANCH   1  13
ATOM     13  O   UNL     1       7.146  -8.142  -1.889  0.00  0.00    +0.000 OA
BRANCH  13  14
ATOM     14  C   UNL     1       6.236  -8.150  -2.935  0.00  0.00    +0.000 C 
BRANCH  14  15
ATOM     15  C   UNL     1       5.679  -9.600  -2.838  0.00  0.00    +0.000 C 
ATOM     16  C   UNL     1       4.561  -9.861  -3.900  0.00  0.00    +0.000 C 
ENDBRANCH  14  15
BRANCH  14  17
ATOM     17  C   UNL     1       7.003  -7.814  -4.297  0.00  0.00    +0.000 C 
BRANCH  17  18
ATOM     18  C   UNL     1       6.360  -6.636  -4.982  0.00  0.00    +0.000 C 
BRANCH  18  20
ATOM     19  C   UNL     1       4.118  -5.511  -4.617  0.00  0.00    +0.000 C 
ATOM     20  C   UNL     1       5.468  -5.832  -4.038  0.00  0.00    +0.000 C 
ENDBRANCH  18  20
ENDBRANCH  17  18
ENDBRANCH  14  17
ENDBRANCH  13  14
ENDBRANCH   1  13
TORSDOF 9
ENDMDL
MODEL 7
REMARK VINA RESULT:      -3.8      1.251      3.249
REMARK  Name = bg33_4_ligand
REMARK  12 active torsions:
REMARK  status: ('A' for Active; 'I' for Inactive)
REMARK    1  A    between atoms: C_1  and  C_2
REMARK    2  A    between atoms: C_2  and  C_3
REMARK    3  A    between atoms: C_3  and  C_4
REMARK    4  A    between atoms: C_4  and  C_5
REMARK    5  A    between atoms: C_5  and  C_6
REMARK    6  A    between atoms: C_5  and  O_8
REMARK    7  A    between atoms: C_6  and  C_7
REMARK    8  A    between atoms: O_8  and  C_9
REMARK    9  A    between atoms: C_9  and  C_11
REMARK   10  A    between atoms: C_12  and  C_13
REMARK   11  A    between atoms: C_16  and  O_17
REMARK   12  A    between atoms: O_17  and  C_18
REMARK                            x       y       z     vdW  Elec       q    Type
REMARK                         _______ _______ _______ _____ _____    ______ ____
ROOT
ATOM      1  C   UNL     1       9.501  -4.632  -1.174  0.00  0.00    +0.000 C 
ATOM      2  O   UNL     1      10.541  -5.208  -0.735  0.00  0.00    +0.000 OA
ENDROOT
BRANCH   1   3
ATOM      3  C   UNL     1       9.537  -3.531  -2.150  0.00  0.00    +0.000 C 
ATOM      4  C   UNL     1       9.806  -2.209  -1.666  0.00  0.00    +0.000 C 
BRANCH   4   5
ATOM      5  C   UNL     1       9.754  -1.010  -2.600  0.00  0.00    +0.000 A 
ATOM      6  C   UNL     1      10.539   0.108  -2.417  0.00  0.00    +0.000 A 
ATOM      7  C   UNL     1      10.471   1.225  -3.321  0.00  0.00    +0.000 A 
ATOM      8  C   UNL     1       9.622   1.223  -4.441  0.00  0.00    +0.000 A 
ATOM      9  C   UNL     1       8.852   0.075  -4.612  0.00  0.00    +0.000 A 
ATOM     10  C   UNL     1       8.926  -1.013  -3.731  0.00  0.00    +0.000 A 
BRANCH   8  11
ATOM     11  O   UNL     1       9.555   2.239  -5.374  0.00  0.00    +0.000 OA
ATOM     12  C   UNL     1       8.417   3.137  -5.339  0.00  0.00    +0.000 C 
ENDBRANCH   8  11
ENDBRANCH   4   5
ENDBRANCH   1   3
BRANCH   1  13
ATOM     13  O   UNL     1       8.172  -5.146  -0.832  0.00  0.00    +0.000 OA
BRANCH  13  14
ATOM     14  C   UNL     1       7.758  -6.364  -1.349  0.00  0.00    +0.000 C 
BRANCH  14  15
ATOM     15  C   UNL     1       6.629  -5.912  -2.320  0.00  0.00    +0.000 C 
ATOM     16  C   UNL     1       6.133  -7.090  -3.220  0.00  0.00    +0.000 C 
ENDBRANCH  14  15
BRANCH  14  17
ATOM     17  C   UNL     1       7.275  -7.304  -0.150  0.00  0.00    +0.000 C 
BRANCH  17  18
ATOM     18  C   UNL     1       8.427  -8.130   0.364  0.00  0.00    +0.000 C 
BRANCH  18  20
ATOM     19  C   UNL     1       8.635  -8.927   2.761  0.00  0.00    +0.000 C 
ATOM     20  C   UNL     1       7.989  -9.141   1.420  0.00  0.00    +0.000 C 
ENDBRANCH  18  20
ENDBRANCH  17  18
ENDBRANCH  14  17
ENDBRANCH  13  14
ENDBRANCH   1  13
TORSDOF 9
ENDMDL
MODEL 8
REMARK VINA RESULT:      -3.8      5.546     10.875
REMARK  Name = bg33_4_ligand
REMARK  12 active torsions:
REMARK  status: ('A' for Active; 'I' for Inactive)
REMARK    1  A    between atoms: C_1  and  C_2
REMARK    2  A    between atoms: C_2  and  C_3
REMARK    3  A    between atoms: C_3  and  C_4
REMARK    4  A    between atoms: C_4  and  C_5
REMARK    5  A    between atoms: C_5  and  C_6
REMARK    6  A    between atoms: C_5  and  O_8
REMARK    7  A    between atoms: C_6  and  C_7
REMARK    8  A    between atoms: O_8  and  C_9
REMARK    9  A    between atoms: C_9  and  C_11
REMARK   10  A    between atoms: C_12  and  C_13
REMARK   11  A    between atoms: C_16  and  O_17
REMARK   12  A    between atoms: O_17  and  C_18
REMARK                            x       y       z     vdW  Elec       q    Type
REMARK                         _______ _______ _______ _____ _____    ______ ____
ROOT
ATOM      1  C   UNL     1       6.913  -8.962  -3.566  0.00  0.00    +0.000 C 
ATOM      2  O   UNL     1       7.489  -9.515  -4.551  0.00  0.00    +0.000 OA
ENDROOT
BRANCH   1   3
ATOM      3  C   UNL     1       5.921  -9.647  -2.721  0.00  0.00    +0.000 C 
ATOM      4  C   UNL     1       6.384 -10.680  -1.841  0.00  0.00    +0.000 C 
BRANCH   4   5
ATOM      5  C   UNL     1       5.404 -11.501  -1.018  0.00  0.00    +0.000 A 
ATOM      6  C   UNL     1       5.744 -12.708  -0.444  0.00  0.00    +0.000 A 
ATOM      7  C   UNL     1       4.796 -13.459   0.333  0.00  0.00    +0.000 A 
ATOM      8  C   UNL     1       3.490 -12.993   0.565  0.00  0.00    +0.000 A 
ATOM      9  C   UNL     1       3.178 -11.764  -0.011  0.00  0.00    +0.000 A 
ATOM     10  C   UNL     1       4.107 -11.033  -0.764  0.00  0.00    +0.000 A 
BRANCH   8  11
ATOM     11  O   UNL     1       2.555 -13.641   1.349  0.00  0.00    +0.000 OA
ATOM     12  C   UNL     1       2.806 -13.757   2.773  0.00  0.00    +0.000 C 
ENDBRANCH   8  11
ENDBRANCH   4   5
ENDBRANCH   1   3
BRANCH   1  13
ATOM     13  O   UNL     1       7.326  -7.629  -3.122  0.00  0.00    +0.000 OA
BRANCH  13  14
ATOM     14  C   UNL     1       6.381  -6.765  -2.589  0.00  0.00    +0.000 C 
BRANCH  14  15
ATOM     15  C   UNL     1       6.059  -5.872  -3.823  0.00  0.00    +0.000 C 
ATOM     16  C   UNL     1       4.527  -5.841  -4.131  0.00  0.00    +0.000 C 
ENDBRANCH  14  15
BRANCH  14  17
ATOM     17  C   UNL     1       7.023  -5.989  -1.347  0.00  0.00    +0.000 C 
BRANCH  17  18
ATOM     18  C   UNL     1       7.814  -6.942  -0.488  0.00  0.00    +0.000 C 
BRANCH  18  20
ATOM     19  C   UNL     1       7.675  -8.769   1.263  0.00  0.00    +0.000 C 
ATOM     20  C   UNL     1       6.916  -7.863   0.334  0.00  0.00    +0.000 C 
ENDBRANCH  18  20
ENDBRANCH  17  18
ENDBRANCH  14  17
ENDBRANCH  13  14
ENDBRANCH   1  13
TORSDOF 9
ENDMDL
MODEL 9
REMARK VINA RESULT:      -3.7      4.041      6.650
REMARK  Name = bg33_4_ligand
REMARK  12 active torsions:
REMARK  status: ('A' for Active; 'I' for Inactive)
REMARK    1  A    between atoms: C_1  and  C_2
REMARK    2  A    between atoms: C_2  and  C_3
REMARK    3  A    between atoms: C_3  and  C_4
REMARK    4  A    between atoms: C_4  and  C_5
REMARK    5  A    between atoms: C_5  and  C_6
REMARK    6  A    between atoms: C_5  and  O_8
REMARK    7  A    between atoms: C_6  and  C_7
REMARK    8  A    between atoms: O_8  and  C_9
REMARK    9  A    between atoms: C_9  and  C_11
REMARK   10  A    between atoms: C_12  and  C_13
REMARK   11  A    between atoms: C_16  and  O_17
REMARK   12  A    between atoms: O_17  and  C_18
REMARK                            x       y       z     vdW  Elec       q    Type
REMARK                         _______ _______ _______ _____ _____    ______ ____
ROOT
ATOM      1  C   UNL     1       5.322  -6.382  -3.870  0.00  0.00    +0.000 C 
ATOM      2  O   UNL     1       5.303  -7.642  -3.728  0.00  0.00    +0.000 OA
ENDROOT
BRANCH   1   3
ATOM      3  C   UNL     1       4.329  -5.644  -4.668  0.00  0.00    +0.000 C 
ATOM      4  C   UNL     1       4.703  -5.222  -5.986  0.00  0.00    +0.000 C 
BRANCH   4   5
ATOM      5  C   UNL     1       3.768  -4.365  -6.825  0.00  0.00    +0.000 A 
ATOM      6  C   UNL     1       3.745  -2.989  -6.741  0.00  0.00    +0.000 A 
ATOM      7  C   UNL     1       2.853  -2.205  -7.552  0.00  0.00    +0.000 A 
ATOM      8  C   UNL     1       1.980  -2.798  -8.482  0.00  0.00    +0.000 A 
ATOM      9  C   UNL     1       2.036  -4.188  -8.558  0.00  0.00    +0.000 A 
ATOM     10  C   UNL     1       2.911  -4.947  -7.770  0.00  0.00    +0.000 A 
BRANCH   8  11
ATOM     11  O   UNL     1       1.143  -2.096  -9.326  0.00  0.00    +0.000 OA
ATOM     12  C   UNL     1      -0.175  -1.727  -8.846  0.00  0.00    +0.000 C 
ENDBRANCH   8  11
ENDBRANCH   4   5
ENDBRANCH   1   3
BRANCH   1  13
ATOM     13  O   UNL     1       6.270  -5.566  -3.107  0.00  0.00    +0.000 OA
BRANCH  13  14
ATOM     14  C   UNL     1       7.386  -6.166  -2.544  0.00  0.00    +0.000 C 
BRANCH  14  15
ATOM     15  C   UNL     1       7.112  -5.947  -1.027  0.00  0.00    +0.000 C 
ATOM     16  C   UNL     1       6.910  -7.303  -0.275  0.00  0.00    +0.000 C 
ENDBRANCH  14  15
BRANCH  14  17
ATOM     17  C   UNL     1       8.702  -5.447  -3.099  0.00  0.00    +0.000 C 
BRANCH  17  18
ATOM     18  C   UNL     1       8.332  -4.227  -3.902  0.00  0.00    +0.000 C 
BRANCH  18  20
ATOM     19  C   UNL     1       9.644  -3.081  -2.060  0.00  0.00    +0.000 C 
ATOM     20  C   UNL     1       9.107  -2.987  -3.461  0.00  0.00    +0.000 C 
ENDBRANCH  18  20
ENDBRANCH  17  18
ENDBRANCH  14  17
ENDBRANCH  13  14
ENDBRANCH   1  13
TORSDOF 9
ENDMDL
