MODEL 1
REMARK VINA RESULT:      -4.0      0.000      0.000
REMARK  Name = bgox31_4_ligand
REMARK  5 active torsions:
REMARK  status: ('A' for Active; 'I' for Inactive)
REMARK    1  A    between atoms: C_1  and  O_2
REMARK    2  A    between atoms: O_2  and  C_3
REMARK    3  A    between atoms: C_6  and  C_7
REMARK    4  A    between atoms: C_7  and  C_9
REMARK    5  A    between atoms: C_15  and  O_16
REMARK                            x       y       z     vdW  Elec       q    Type
REMARK                         _______ _______ _______ _____ _____    ______ ____
ROOT
ATOM      1  C   UNL     1      -1.322  -2.072  -8.280  0.00  0.00    +0.000 A 
ATOM      2  C   UNL     1      -2.650  -1.751  -8.211  0.00  0.00    +0.000 A 
ATOM      3  C   UNL     1      -3.648  -2.765  -7.978  0.00  0.00    +0.000 A 
ATOM      4  C   UNL     1      -3.198  -4.090  -7.890  0.00  0.00    +0.000 A 
ATOM      5  C   UNL     1      -1.842  -4.386  -7.944  0.00  0.00    +0.000 A 
ATOM      6  C   UNL     1      -0.871  -3.389  -8.152  0.00  0.00    +0.000 A 
ENDROOT
BRANCH   1   8
ATOM      7  C   UNL     1      -0.179  -0.688  -9.855  0.00  0.00    +0.000 C 
ATOM      8  O   UNL     1      -0.410  -1.066  -8.471  0.00  0.00    +0.000 OA
ENDBRANCH   1   8
BRANCH   4   9
ATOM      9  C   UNL     1      -4.230  -5.121  -7.688  0.00  0.00    +0.000 C 
ATOM     10  O   UNL     1      -4.426  -5.927  -8.658  0.00  0.00    +0.000 OA
BRANCH   9  11
ATOM     11  C   UNL     1      -4.856  -5.429  -6.400  0.00  0.00    +0.000 A 
ATOM     12  C   UNL     1      -4.187  -6.343  -5.574  0.00  0.00    +0.000 A 
ATOM     13  C   UNL     1      -4.794  -6.740  -4.362  0.00  0.00    +0.000 A 
ATOM     14  C   UNL     1      -6.049  -6.310  -4.065  0.00  0.00    +0.000 A 
ATOM     15  C   UNL     1      -6.753  -5.456  -4.895  0.00  0.00    +0.000 A 
ATOM     16  C   UNL     1      -6.172  -5.021  -6.102  0.00  0.00    +0.000 A 
ENDBRANCH   9  11
ENDBRANCH   4   9
BRANCH   5  17
ATOM     17  O   UNL     1      -1.458  -5.733  -7.824  0.00  0.00    +0.000 OA
ATOM     18  H   UNL     1      -1.025  -6.195  -8.586  0.00  0.00    +0.000 HD
ENDBRANCH   5  17
TORSDOF 4
ENDMDL
MODEL 2
REMARK VINA RESULT:      -3.9      2.045      5.946
REMARK  Name = bgox31_4_ligand
REMARK  5 active torsions:
REMARK  status: ('A' for Active; 'I' for Inactive)
REMARK    1  A    between atoms: C_1  and  O_2
REMARK    2  A    between atoms: O_2  and  C_3
REMARK    3  A    between atoms: C_6  and  C_7
REMARK    4  A    between atoms: C_7  and  C_9
REMARK    5  A    between atoms: C_15  and  O_16
REMARK                            x       y       z     vdW  Elec       q    Type
REMARK                         _______ _______ _______ _____ _____    ______ ____
ROOT
ATOM      1  C   UNL     1      -6.011  -5.905  -4.827  0.00  0.00    +0.000 A 
ATOM      2  C   UNL     1      -6.625  -5.010  -5.660  0.00  0.00    +0.000 A 
ATOM      3  C   UNL     1      -6.002  -4.596  -6.892  0.00  0.00    +0.000 A 
ATOM      4  C   UNL     1      -4.723  -5.106  -7.160  0.00  0.00    +0.000 A 
ATOM      5  C   UNL     1      -4.133  -6.028  -6.308  0.00  0.00    +0.000 A 
ATOM      6  C   UNL     1      -4.754  -6.443  -5.115  0.00  0.00    +0.000 A 
ENDROOT
BRANCH   1   8
ATOM      7  C   UNL     1      -5.870  -7.080  -2.753  0.00  0.00    +0.000 C 
ATOM      8  O   UNL     1      -6.661  -6.291  -3.682  0.00  0.00    +0.000 OA
ENDBRANCH   1   8
BRANCH   4   9
ATOM      9  C   UNL     1      -4.083  -4.647  -8.405  0.00  0.00    +0.000 C 
ATOM     10  O   UNL     1      -3.891  -5.532  -9.304  0.00  0.00    +0.000 OA
BRANCH   9  11
ATOM     11  C   UNL     1      -3.881  -3.243  -8.767  0.00  0.00    +0.000 A 
ATOM     12  C   UNL     1      -3.971  -2.921 -10.127  0.00  0.00    +0.000 A 
ATOM     13  C   UNL     1      -3.696  -1.597 -10.536  0.00  0.00    +0.000 A 
ATOM     14  C   UNL     1      -3.258  -0.688  -9.625  0.00  0.00    +0.000 A 
ATOM     15  C   UNL     1      -3.103  -1.000  -8.286  0.00  0.00    +0.000 A 
ATOM     16  C   UNL     1      -3.388  -2.305  -7.837  0.00  0.00    +0.000 A 
ENDBRANCH   9  11
ENDBRANCH   4   9
BRANCH   5  17
ATOM     17  O   UNL     1      -2.859  -6.518  -6.649  0.00  0.00    +0.000 OA
ATOM     18  H   UNL     1      -2.392  -6.166  -7.448  0.00  0.00    +0.000 HD
ENDBRANCH   5  17
TORSDOF 4
ENDMDL
MODEL 3
REMARK VINA RESULT:      -3.9      9.128     11.444
REMARK  Name = bgox31_4_ligand
REMARK  5 active torsions:
REMARK  status: ('A' for Active; 'I' for Inactive)
REMARK    1  A    between atoms: C_1  and  O_2
REMARK    2  A    between atoms: O_2  and  C_3
REMARK    3  A    between atoms: C_6  and  C_7
REMARK    4  A    between atoms: C_7  and  C_9
REMARK    5  A    between atoms: C_15  and  O_16
REMARK                            x       y       z     vdW  Elec       q    Type
REMARK                         _______ _______ _______ _____ _____    ______ ____
ROOT
ATOM      1  C   UNL     1       5.664  -8.077  -2.558  0.00  0.00    +0.000 A 
ATOM      2  C   UNL     1       6.670  -7.560  -3.329  0.00  0.00    +0.000 A 
ATOM      3  C   UNL     1       6.567  -6.238  -3.894  0.00  0.00    +0.000 A 
ATOM      4  C   UNL     1       5.370  -5.542  -3.667  0.00  0.00    +0.000 A 
ATOM      5  C   UNL     1       4.374  -6.082  -2.865  0.00  0.00    +0.000 A 
ATOM      6  C   UNL     1       4.489  -7.366  -2.300  0.00  0.00    +0.000 A 
ENDROOT
BRANCH   1   8
ATOM      7  C   UNL     1       4.602 -10.086  -1.826  0.00  0.00    +0.000 C 
ATOM      8  O   UNL     1       5.826  -9.327  -2.017  0.00  0.00    +0.000 OA
ENDBRANCH   1   8
BRANCH   4   9
ATOM      9  C   UNL     1       5.262  -4.207  -4.280  0.00  0.00    +0.000 C 
ATOM     10  O   UNL     1       4.409  -4.080  -5.221  0.00  0.00    +0.000 OA
BRANCH   9  11
ATOM     11  C   UNL     1       5.873  -2.992  -3.736  0.00  0.00    +0.000 A 
ATOM     12  C   UNL     1       5.924  -1.876  -4.582  0.00  0.00    +0.000 A 
ATOM     13  C   UNL     1       6.583  -0.709  -4.135  0.00  0.00    +0.000 A 
ATOM     14  C   UNL     1       7.236  -0.719  -2.943  0.00  0.00    +0.000 A 
ATOM     15  C   UNL     1       7.251  -1.830  -2.118  0.00  0.00    +0.000 A 
ATOM     16  C   UNL     1       6.586  -3.005  -2.520  0.00  0.00    +0.000 A 
ENDBRANCH   9  11
ENDBRANCH   4   9
BRANCH   5  17
ATOM     17  O   UNL     1       3.210  -5.320  -2.659  0.00  0.00    +0.000 OA
ATOM     18  H   UNL     1       2.333  -5.770  -2.570  0.00  0.00    +0.000 HD
ENDBRANCH   5  17
TORSDOF 4
ENDMDL
MODEL 4
REMARK VINA RESULT:      -3.8      8.947     11.177
REMARK  Name = bgox31_4_ligand
REMARK  5 active torsions:
REMARK  status: ('A' for Active; 'I' for Inactive)
REMARK    1  A    between atoms: C_1  and  O_2
REMARK    2  A    between atoms: O_2  and  C_3
REMARK    3  A    between atoms: C_6  and  C_7
REMARK    4  A    between atoms: C_7  and  C_9
REMARK    5  A    between atoms: C_15  and  O_16
REMARK                            x       y       z     vdW  Elec       q    Type
REMARK                         _______ _______ _______ _____ _____    ______ ____
ROOT
ATOM      1  C   UNL     1       5.136  -8.267  -2.934  0.00  0.00    +0.000 A 
ATOM      2  C   UNL     1       6.116  -7.870  -3.803  0.00  0.00    +0.000 A 
ATOM      3  C   UNL     1       6.161  -6.519  -4.304  0.00  0.00    +0.000 A 
ATOM      4  C   UNL     1       5.125  -5.661  -3.908  0.00  0.00    +0.000 A 
ATOM      5  C   UNL     1       4.154  -6.084  -3.010  0.00  0.00    +0.000 A 
ATOM      6  C   UNL     1       4.128  -7.399  -2.509  0.00  0.00    +0.000 A 
ENDROOT
BRANCH   1   8
ATOM      7  C   UNL     1       3.857 -10.134  -2.172  0.00  0.00    +0.000 C 
ATOM      8  O   UNL     1       5.158  -9.555  -2.462  0.00  0.00    +0.000 OA
ENDBRANCH   1   8
BRANCH   4   9
ATOM      9  C   UNL     1       5.162  -4.293  -4.455  0.00  0.00    +0.000 C 
ATOM     10  O   UNL     1       4.298  -4.017  -5.353  0.00  0.00    +0.000 OA
BRANCH   9  11
ATOM     11  C   UNL     1       5.936  -3.191  -3.882  0.00  0.00    +0.000 A 
ATOM     12  C   UNL     1       6.519  -3.412  -2.627  0.00  0.00    +0.000 A 
ATOM     13  C   UNL     1       7.200  -2.350  -1.993  0.00  0.00    +0.000 A 
ATOM     14  C   UNL     1       7.195  -1.114  -2.558  0.00  0.00    +0.000 A 
ATOM     15  C   UNL     1       6.572  -0.857  -3.767  0.00  0.00    +0.000 A 
ATOM     16  C   UNL     1       5.902  -1.896  -4.440  0.00  0.00    +0.000 A 
ENDBRANCH   9  11
ENDBRANCH   4   9
BRANCH   5  17
ATOM     17  O   UNL     1       3.159  -5.164  -2.636  0.00  0.00    +0.000 OA
ATOM     18  H   UNL     1       3.116  -4.832  -1.703  0.00  0.00    +0.000 HD
ENDBRANCH   5  17
TORSDOF 4
ENDMDL
MODEL 5
REMARK VINA RESULT:      -3.7      8.210     10.789
REMARK  Name = bgox31_4_ligand
REMARK  5 active torsions:
REMARK  status: ('A' for Active; 'I' for Inactive)
REMARK    1  A    between atoms: C_1  and  O_2
REMARK    2  A    between atoms: O_2  and  C_3
REMARK    3  A    between atoms: C_6  and  C_7
REMARK    4  A    between atoms: C_7  and  C_9
REMARK    5  A    between atoms: C_15  and  O_16
REMARK                            x       y       z     vdW  Elec       q    Type
REMARK                         _______ _______ _______ _____ _____    ______ ____
ROOT
ATOM      1  C   UNL     1       3.894  -7.534  -5.342  0.00  0.00    +0.000 A 
ATOM      2  C   UNL     1       5.260  -7.485  -5.412  0.00  0.00    +0.000 A 
ATOM      3  C   UNL     1       6.021  -6.668  -4.501  0.00  0.00    +0.000 A 
ATOM      4  C   UNL     1       5.294  -5.886  -3.591  0.00  0.00    +0.000 A 
ATOM      5  C   UNL     1       3.909  -5.970  -3.528  0.00  0.00    +0.000 A 
ATOM      6  C   UNL     1       3.173  -6.786  -4.408  0.00  0.00    +0.000 A 
ENDROOT
BRANCH   1   8
ATOM      7  C   UNL     1       1.827  -8.007  -6.440  0.00  0.00    +0.000 C 
ATOM      8  O   UNL     1       3.219  -8.353  -6.211  0.00  0.00    +0.000 OA
ENDBRANCH   1   8
BRANCH   4   9
ATOM      9  C   UNL     1       6.081  -5.028  -2.689  0.00  0.00    +0.000 C 
ATOM     10  O   UNL     1       6.693  -5.615  -1.736  0.00  0.00    +0.000 OA
BRANCH   9  11
ATOM     11  C   UNL     1       6.399  -3.622  -2.949  0.00  0.00    +0.000 A 
ATOM     12  C   UNL     1       7.242  -2.984  -2.030  0.00  0.00    +0.000 A 
ATOM     13  C   UNL     1       7.506  -1.605  -2.188  0.00  0.00    +0.000 A 
ATOM     14  C   UNL     1       6.866  -0.904  -3.161  0.00  0.00    +0.000 A 
ATOM     15  C   UNL     1       5.981  -1.501  -4.042  0.00  0.00    +0.000 A 
ATOM     16  C   UNL     1       5.710  -2.879  -3.929  0.00  0.00    +0.000 A 
ENDBRANCH   9  11
ENDBRANCH   4   9
BRANCH   5  17
ATOM     17  O   UNL     1       3.245  -5.178  -2.575  0.00  0.00    +0.000 OA
ATOM     18  H   UNL     1       3.614  -5.089  -1.661  0.00  0.00    +0.000 HD
ENDBRANCH   5  17
TORSDOF 4
ENDMDL
MODEL 6
REMARK VINA RESULT:      -3.6     11.631     13.865
REMARK  Name = bgox31_4_ligand
REMARK  5 active torsions:
REMARK  status: ('A' for Active; 'I' for Inactive)
REMARK    1  A    between atoms: C_1  and  O_2
REMARK    2  A    between atoms: O_2  and  C_3
REMARK    3  A    between atoms: C_6  and  C_7
REMARK    4  A    between atoms: C_7  and  C_9
REMARK    5  A    between atoms: C_15  and  O_16
REMARK                            x       y       z     vdW  Elec       q    Type
REMARK                         _______ _______ _______ _____ _____    ______ ____
ROOT
ATOM      1  C   UNL     1      -1.786  -9.667   5.772  0.00  0.00    +0.000 A 
ATOM      2  C   UNL     1      -1.923  -8.406   5.261  0.00  0.00    +0.000 A 
ATOM      3  C   UNL     1      -3.183  -7.709   5.333  0.00  0.00    +0.000 A 
ATOM      4  C   UNL     1      -4.263  -8.407   5.892  0.00  0.00    +0.000 A 
ATOM      5  C   UNL     1      -4.091  -9.679   6.421  0.00  0.00    +0.000 A 
ATOM      6  C   UNL     1      -2.853 -10.346   6.365  0.00  0.00    +0.000 A 
ENDROOT
BRANCH   1   8
ATOM      7  C   UNL     1       0.116 -10.457   6.982  0.00  0.00    +0.000 C 
ATOM      8  O   UNL     1      -0.557 -10.274   5.707  0.00  0.00    +0.000 OA
ENDBRANCH   1   8
BRANCH   4   9
ATOM      9  C   UNL     1      -5.554  -7.698   5.927  0.00  0.00    +0.000 C 
ATOM     10  O   UNL     1      -6.072  -7.517   7.079  0.00  0.00    +0.000 OA
BRANCH   9  11
ATOM     11  C   UNL     1      -6.145  -6.992   4.788  0.00  0.00    +0.000 A 
ATOM     12  C   UNL     1      -6.219  -7.695   3.578  0.00  0.00    +0.000 A 
ATOM     13  C   UNL     1      -6.698  -7.027   2.429  0.00  0.00    +0.000 A 
ATOM     14  C   UNL     1      -6.983  -5.700   2.490  0.00  0.00    +0.000 A 
ATOM     15  C   UNL     1      -6.858  -4.971   3.660  0.00  0.00    +0.000 A 
ATOM     16  C   UNL     1      -6.405  -5.607   4.832  0.00  0.00    +0.000 A 
ENDBRANCH   9  11
ENDBRANCH   4   9
BRANCH   5  17
ATOM     17  O   UNL     1      -5.211 -10.311   6.989  0.00  0.00    +0.000 OA
ATOM     18  H   UNL     1      -5.172 -11.274   7.221  0.00  0.00    +0.000 HD
ENDBRANCH   5  17
TORSDOF 4
ENDMDL
MODEL 7
REMARK VINA RESULT:      -3.6     17.234     18.760
REMARK  Name = bgox31_4_ligand
REMARK  5 active torsions:
REMARK  status: ('A' for Active; 'I' for Inactive)
REMARK    1  A    between atoms: C_1  and  O_2
REMARK    2  A    between atoms: O_2  and  C_3
REMARK    3  A    between atoms: C_6  and  C_7
REMARK    4  A    between atoms: C_7  and  C_9
REMARK    5  A    between atoms: C_15  and  O_16
REMARK                            x       y       z     vdW  Elec       q    Type
REMARK                         _______ _______ _______ _____ _____    ______ ____
ROOT
ATOM      1  C   UNL     1       3.829  -3.279   8.087  0.00  0.00    +0.000 A 
ATOM      2  C   UNL     1       4.765  -3.111   9.071  0.00  0.00    +0.000 A 
ATOM      3  C   UNL     1       6.063  -3.730   8.975  0.00  0.00    +0.000 A 
ATOM      4  C   UNL     1       6.292  -4.554   7.863  0.00  0.00    +0.000 A 
ATOM      5  C   UNL     1       5.332  -4.691   6.869  0.00  0.00    +0.000 A 
ATOM      6  C   UNL     1       4.074  -4.068   6.960  0.00  0.00    +0.000 A 
ENDROOT
BRANCH   1   8
ATOM      7  C   UNL     1       1.490  -3.329   7.613  0.00  0.00    +0.000 C 
ATOM      8  O   UNL     1       2.621  -2.642   8.211  0.00  0.00    +0.000 OA
ENDBRANCH   1   8
BRANCH   4   9
ATOM      9  C   UNL     1       7.610  -5.210   7.794  0.00  0.00    +0.000 C 
ATOM     10  O   UNL     1       7.608  -6.485   7.754  0.00  0.00    +0.000 OA
BRANCH   9  11
ATOM     11  C   UNL     1       8.870  -4.514   7.528  0.00  0.00    +0.000 A 
ATOM     12  C   UNL     1       9.439  -4.696   6.261  0.00  0.00    +0.000 A 
ATOM     13  C   UNL     1      10.699  -4.118   5.987  0.00  0.00    +0.000 A 
ATOM     14  C   UNL     1      11.379  -3.484   6.978  0.00  0.00    +0.000 A 
ATOM     15  C   UNL     1      10.864  -3.346   8.256  0.00  0.00    +0.000 A 
ATOM     16  C   UNL     1       9.600  -3.890   8.560  0.00  0.00    +0.000 A 
ENDBRANCH   9  11
ENDBRANCH   4   9
BRANCH   5  17
ATOM     17  O   UNL     1       5.638  -5.513   5.770  0.00  0.00    +0.000 OA
ATOM     18  H   UNL     1       6.567  -5.824   5.626  0.00  0.00    +0.000 HD
ENDBRANCH   5  17
TORSDOF 4
ENDMDL
MODEL 8
REMARK VINA RESULT:      -3.5     10.038     12.498
REMARK  Name = bgox31_4_ligand
REMARK  5 active torsions:
REMARK  status: ('A' for Active; 'I' for Inactive)
REMARK    1  A    between atoms: C_1  and  O_2
REMARK    2  A    between atoms: O_2  and  C_3
REMARK    3  A    between atoms: C_6  and  C_7
REMARK    4  A    between atoms: C_7  and  C_9
REMARK    5  A    between atoms: C_15  and  O_16
REMARK                            x       y       z     vdW  Elec       q    Type
REMARK                         _______ _______ _______ _____ _____    ______ ____
ROOT
ATOM      1  C   UNL     1       5.223  -3.717  -5.578  0.00  0.00    +0.000 A 
ATOM      2  C   UNL     1       6.034  -2.619  -5.474  0.00  0.00    +0.000 A 
ATOM      3  C   UNL     1       6.782  -2.360  -4.270  0.00  0.00    +0.000 A 
ATOM      4  C   UNL     1       6.591  -3.247  -3.200  0.00  0.00    +0.000 A 
ATOM      5  C   UNL     1       5.778  -4.364  -3.339  0.00  0.00    +0.000 A 
ATOM      6  C   UNL     1       5.065  -4.621  -4.525  0.00  0.00    +0.000 A 
ENDROOT
BRANCH   1   8
ATOM      7  C   UNL     1       3.562  -4.993  -6.724  0.00  0.00    +0.000 C 
ATOM      8  O   UNL     1       4.558  -3.936  -6.757  0.00  0.00    +0.000 OA
ENDBRANCH   1   8
BRANCH   4   9
ATOM      9  C   UNL     1       7.333  -2.951  -1.963  0.00  0.00    +0.000 C 
ATOM     10  O   UNL     1       6.645  -2.877  -0.891  0.00  0.00    +0.000 OA
BRANCH   9  11
ATOM     11  C   UNL     1       8.793  -2.978  -1.844  0.00  0.00    +0.000 A 
ATOM     12  C   UNL     1       9.444  -1.740  -1.762  0.00  0.00    +0.000 A 
ATOM     13  C   UNL     1      10.856  -1.711  -1.736  0.00  0.00    +0.000 A 
ATOM     14  C   UNL     1      11.556  -2.865  -1.890  0.00  0.00    +0.000 A 
ATOM     15  C   UNL     1      10.934  -4.093  -2.036  0.00  0.00    +0.000 A 
ATOM     16  C   UNL     1       9.528  -4.164  -2.044  0.00  0.00    +0.000 A 
ENDBRANCH   9  11
ENDBRANCH   4   9
BRANCH   5  17
ATOM     17  O   UNL     1       5.650  -5.225  -2.235  0.00  0.00    +0.000 OA
ATOM     18  H   UNL     1       5.205  -6.103  -2.340  0.00  0.00    +0.000 HD
ENDBRANCH   5  17
TORSDOF 4
ENDMDL
MODEL 9
REMARK VINA RESULT:      -3.5      5.033      6.480
REMARK  Name = bgox31_4_ligand
REMARK  5 active torsions:
REMARK  status: ('A' for Active; 'I' for Inactive)
REMARK    1  A    between atoms: C_1  and  O_2
REMARK    2  A    between atoms: O_2  and  C_3
REMARK    3  A    between atoms: C_6  and  C_7
REMARK    4  A    between atoms: C_7  and  C_9
REMARK    5  A    between atoms: C_15  and  O_16
REMARK                            x       y       z     vdW  Elec       q    Type
REMARK                         _______ _______ _______ _____ _____    ______ ____
ROOT
ATOM      1  C   UNL     1       1.631  -8.759  -4.028  0.00  0.00    +0.000 A 
ATOM      2  C   UNL     1       0.820  -9.012  -5.100  0.00  0.00    +0.000 A 
ATOM      3  C   UNL     1      -0.612  -9.073  -4.950  0.00  0.00    +0.000 A 
ATOM      4  C   UNL     1      -1.121  -8.921  -3.652  0.00  0.00    +0.000 A 
ATOM      5  C   UNL     1      -0.277  -8.646  -2.584  0.00  0.00    +0.000 A 
ATOM      6  C   UNL     1       1.119  -8.570  -2.742  0.00  0.00    +0.000 A 
ENDROOT
BRANCH   1   8
ATOM      7  C   UNL     1       3.451  -7.461  -4.867  0.00  0.00    +0.000 C 
ATOM      8  O   UNL     1       2.986  -8.681  -4.230  0.00  0.00    +0.000 OA
ENDBRANCH   1   8
BRANCH   4   9
ATOM      9  C   UNL     1      -2.584  -9.021  -3.506  0.00  0.00    +0.000 C 
ATOM     10  O   UNL     1      -3.025 -10.049  -2.893  0.00  0.00    +0.000 OA
BRANCH   9  11
ATOM     11  C   UNL     1      -3.522  -7.933  -3.790  0.00  0.00    +0.000 A 
ATOM     12  C   UNL     1      -4.477  -7.647  -2.806  0.00  0.00    +0.000 A 
ATOM     13  C   UNL     1      -5.460  -6.668  -3.070  0.00  0.00    +0.000 A 
ATOM     14  C   UNL     1      -5.524  -6.094  -4.300  0.00  0.00    +0.000 A 
ATOM     15  C   UNL     1      -4.630  -6.406  -5.309  0.00  0.00    +0.000 A 
ATOM     16  C   UNL     1      -3.622  -7.362  -5.075  0.00  0.00    +0.000 A 
ENDBRANCH   9  11
ENDBRANCH   4   9
BRANCH   5  17
ATOM     17  O   UNL     1      -0.857  -8.481  -1.314  0.00  0.00    +0.000 OA
ATOM     18  H   UNL     1      -1.842  -8.497  -1.213  0.00  0.00    +0.000 HD
ENDBRANCH   5  17
TORSDOF 4
ENDMDL
