REMARK  Name = ox2_shuffle_ligand
REMARK  5 active torsions:
REMARK  status: ('A' for Active; 'I' for Inactive)
REMARK    1  A    between atoms: C_1  and  O_2
REMARK    2  A    between atoms: O_2  and  C_3
REMARK    3  A    between atoms: C_6  and  C_7
REMARK    4  A    between atoms: C_7  and  C_9
REMARK    5  A    between atoms: C_15  and  O_16
REMARK                            x       y       z     vdW  Elec       q    Type
REMARK                         _______ _______ _______ _____ _____    ______ ____
ROOT
ATOM      1  C   UNL     1      -3.754  -5.810   8.222  0.00  0.00    +0.000 A 
ATOM      2  C   UNL     1      -2.815  -4.987   8.824  0.00  0.00    +0.000 A 
ATOM      3  C   UNL     1      -2.103  -4.073   8.077  0.00  0.00    +0.000 A 
ATOM      4  C   UNL     1      -2.314  -3.971   6.708  0.00  0.00    +0.000 A 
ATOM      5  C   UNL     1      -3.256  -4.808   6.092  0.00  0.00    +0.000 A 
ATOM      6  C   UNL     1      -3.970  -5.719   6.860  0.00  0.00    +0.000 A 
ENDROOT
BRANCH   1   8
ATOM      7  C   UNL     1      -5.689  -7.178   8.638  0.00  0.00    +0.000 C 
ATOM      8  O   UNL     1      -4.430  -6.692   9.027  0.00  0.00    +0.000 OA
ENDBRANCH   1   8
BRANCH   4   9
ATOM      9  C   UNL     1      -1.537  -2.975   5.888  0.00  0.00    +0.000 C 
ATOM     10  O   UNL     1      -1.753  -2.880   4.701  0.00  0.00    +0.000 OA
BRANCH   9  11
ATOM     11  C   UNL     1      -0.503  -2.132   6.524  0.00  0.00    +0.000 A 
ATOM     12  C   UNL     1      -0.861  -1.108   7.393  0.00  0.00    +0.000 A 
ATOM     13  C   UNL     1       0.122  -0.318   7.970  0.00  0.00    +0.000 A 
ATOM     14  C   UNL     1       1.465  -0.557   7.687  0.00  0.00    +0.000 A 
ATOM     15  C   UNL     1       1.823  -1.571   6.807  0.00  0.00    +0.000 A 
ATOM     16  C   UNL     1       0.835  -2.357   6.210  0.00  0.00    +0.000 A 
ENDBRANCH   9  11
ENDBRANCH   4   9
BRANCH   5  17
ATOM     17  O   UNL     1      -3.466  -4.717   4.749  0.00  0.00    +0.000 OA
ATOM     18  H   UNL     1      -4.130  -5.306   4.311  0.00  0.00    +0.000 HD
ENDBRANCH   5  17
TORSDOF 4
