MODEL 1
REMARK VINA RESULT:      -4.5      0.000      0.000
REMARK  Name = ox2_shuffle_ligand
REMARK  5 active torsions:
REMARK  status: ('A' for Active; 'I' for Inactive)
REMARK    1  A    between atoms: C_1  and  O_2
REMARK    2  A    between atoms: O_2  and  C_3
REMARK    3  A    between atoms: C_6  and  C_7
REMARK    4  A    between atoms: C_7  and  C_9
REMARK    5  A    between atoms: C_15  and  O_16
REMARK                            x       y       z     vdW  Elec       q    Type
REMARK                         _______ _______ _______ _____ _____    ______ ____
ROOT
ATOM      1  C   UNL     1       1.495  -2.332   7.343  0.00  0.00    +0.000 A 
ATOM      2  C   UNL     1       1.221  -3.575   7.892  0.00  0.00    +0.000 A 
ATOM      3  C   UNL     1      -0.070  -4.058   7.923  0.00  0.00    +0.000 A 
ATOM      4  C   UNL     1      -1.114  -3.300   7.410  0.00  0.00    +0.000 A 
ATOM      5  C   UNL     1      -0.845  -2.037   6.862  0.00  0.00    +0.000 A 
ATOM      6  C   UNL     1       0.462  -1.568   6.832  0.00  0.00    +0.000 A 
ENDROOT
BRANCH   1   8
ATOM      7  C   UNL     1       3.212  -0.887   6.476  0.00  0.00    +0.000 C 
ATOM      8  O   UNL     1       2.802  -1.917   7.339  0.00  0.00    +0.000 OA
ENDBRANCH   1   8
BRANCH   4   9
ATOM      9  C   UNL     1      -2.526  -3.823   7.445  0.00  0.00    +0.000 C 
ATOM     10  O   UNL     1      -3.361  -3.247   8.105  0.00  0.00    +0.000 OA
BRANCH   9  11
ATOM     11  C   UNL     1      -2.886  -5.043   6.693  0.00  0.00    +0.000 A 
ATOM     12  C   UNL     1      -3.227  -4.971   5.347  0.00  0.00    +0.000 A 
ATOM     13  C   UNL     1      -3.575  -6.124   4.661  0.00  0.00    +0.000 A 
ATOM     14  C   UNL     1      -3.575  -7.354   5.316  0.00  0.00    +0.000 A 
ATOM     15  C   UNL     1      -3.249  -7.425   6.665  0.00  0.00    +0.000 A 
ATOM     16  C   UNL     1      -2.915  -6.263   7.364  0.00  0.00    +0.000 A 
ENDBRANCH   9  11
ENDBRANCH   4   9
BRANCH   5  17
ATOM     17  O   UNL     1      -1.864  -1.285   6.361  0.00  0.00    +0.000 OA
ATOM     18  H   UNL     1      -2.003  -0.361   6.686  0.00  0.00    +0.000 HD
ENDBRANCH   5  17
TORSDOF 4
ENDMDL
MODEL 2
REMARK VINA RESULT:      -4.4      7.199      9.488
REMARK  Name = ox2_shuffle_ligand
REMARK  5 active torsions:
REMARK  status: ('A' for Active; 'I' for Inactive)
REMARK    1  A    between atoms: C_1  and  O_2
REMARK    2  A    between atoms: O_2  and  C_3
REMARK    3  A    between atoms: C_6  and  C_7
REMARK    4  A    between atoms: C_7  and  C_9
REMARK    5  A    between atoms: C_15  and  O_16
REMARK                            x       y       z     vdW  Elec       q    Type
REMARK                         _______ _______ _______ _____ _____    ______ ____
ROOT
ATOM      1  C   UNL     1      -4.883  -8.302   2.560  0.00  0.00    +0.000 A 
ATOM      2  C   UNL     1      -6.133  -8.889   2.436  0.00  0.00    +0.000 A 
ATOM      3  C   UNL     1      -7.110  -8.301   1.663  0.00  0.00    +0.000 A 
ATOM      4  C   UNL     1      -6.856  -7.105   1.003  0.00  0.00    +0.000 A 
ATOM      5  C   UNL     1      -5.596  -6.501   1.132  0.00  0.00    +0.000 A 
ATOM      6  C   UNL     1      -4.620  -7.111   1.910  0.00  0.00    +0.000 A 
ENDROOT
BRANCH   1   8
ATOM      7  C   UNL     1      -4.234  -9.205   4.694  0.00  0.00    +0.000 C 
ATOM      8  O   UNL     1      -3.957  -8.945   3.341  0.00  0.00    +0.000 OA
ENDBRANCH   1   8
BRANCH   4   9
ATOM      9  C   UNL     1      -7.921  -6.458   0.158  0.00  0.00    +0.000 C 
ATOM     10  O   UNL     1      -7.794  -6.429  -1.045  0.00  0.00    +0.000 OA
BRANCH   9  11
ATOM     11  C   UNL     1      -9.106  -5.845   0.794  0.00  0.00    +0.000 A 
ATOM     12  C   UNL     1      -9.975  -6.613   1.560  0.00  0.00    +0.000 A 
ATOM     13  C   UNL     1     -11.089  -6.024   2.139  0.00  0.00    +0.000 A 
ATOM     14  C   UNL     1     -11.331  -4.664   1.961  0.00  0.00    +0.000 A 
ATOM     15  C   UNL     1     -10.471  -3.898   1.183  0.00  0.00    +0.000 A 
ATOM     16  C   UNL     1      -9.358  -4.492   0.584  0.00  0.00    +0.000 A 
ENDBRANCH   9  11
ENDBRANCH   4   9
BRANCH   5  17
ATOM     17  O   UNL     1      -5.340  -5.327   0.491  0.00  0.00    +0.000 OA
ATOM     18  H   UNL     1      -4.406  -5.031   0.355  0.00  0.00    +0.000 HD
ENDBRANCH   5  17
TORSDOF 4
ENDMDL
MODEL 3
REMARK VINA RESULT:      -4.3      8.382      9.846
REMARK  Name = ox2_shuffle_ligand
REMARK  5 active torsions:
REMARK  status: ('A' for Active; 'I' for Inactive)
REMARK    1  A    between atoms: C_1  and  O_2
REMARK    2  A    between atoms: O_2  and  C_3
REMARK    3  A    between atoms: C_6  and  C_7
REMARK    4  A    between atoms: C_7  and  C_9
REMARK    5  A    between atoms: C_15  and  O_16
REMARK                            x       y       z     vdW  Elec       q    Type
REMARK                         _______ _______ _______ _____ _____    ______ ____
ROOT
ATOM      1  C   UNL     1      -4.038  -8.924  -0.638  0.00  0.00    +0.000 A 
ATOM      2  C   UNL     1      -5.273  -9.161  -1.223  0.00  0.00    +0.000 A 
ATOM      3  C   UNL     1      -6.346  -8.341  -0.949  0.00  0.00    +0.000 A 
ATOM      4  C   UNL     1      -6.205  -7.269  -0.077  0.00  0.00    +0.000 A 
ATOM      5  C   UNL     1      -4.960  -7.030   0.524  0.00  0.00    +0.000 A 
ATOM      6  C   UNL     1      -3.887  -7.862   0.233  0.00  0.00    +0.000 A 
ENDROOT
BRANCH   1   8
ATOM      7  C   UNL     1      -2.162  -9.481  -2.038  0.00  0.00    +0.000 C 
ATOM      8  O   UNL     1      -3.013  -9.777  -0.960  0.00  0.00    +0.000 OA
ENDBRANCH   1   8
BRANCH   4   9
ATOM      9  C   UNL     1      -7.375  -6.371   0.225  0.00  0.00    +0.000 C 
ATOM     10  O   UNL     1      -7.426  -5.268  -0.269  0.00  0.00    +0.000 OA
BRANCH   9  11
ATOM     11  C   UNL     1      -8.446  -6.826   1.136  0.00  0.00    +0.000 A 
ATOM     12  C   UNL     1      -8.296  -7.992   1.879  0.00  0.00    +0.000 A 
ATOM     13  C   UNL     1      -9.317  -8.411   2.719  0.00  0.00    +0.000 A 
ATOM     14  C   UNL     1     -10.486  -7.660   2.825  0.00  0.00    +0.000 A 
ATOM     15  C   UNL     1     -10.643  -6.503   2.072  0.00  0.00    +0.000 A 
ATOM     16  C   UNL     1      -9.625  -6.087   1.212  0.00  0.00    +0.000 A 
ENDBRANCH   9  11
ENDBRANCH   4   9
BRANCH   5  17
ATOM     17  O   UNL     1      -4.814  -5.983   1.383  0.00  0.00    +0.000 OA
ATOM     18  H   UNL     1      -4.512  -6.144   2.312  0.00  0.00    +0.000 HD
ENDBRANCH   5  17
TORSDOF 4
ENDMDL
MODEL 4
REMARK VINA RESULT:      -4.2      5.731      9.211
REMARK  Name = ox2_shuffle_ligand
REMARK  5 active torsions:
REMARK  status: ('A' for Active; 'I' for Inactive)
REMARK    1  A    between atoms: C_1  and  O_2
REMARK    2  A    between atoms: O_2  and  C_3
REMARK    3  A    between atoms: C_6  and  C_7
REMARK    4  A    between atoms: C_7  and  C_9
REMARK    5  A    between atoms: C_15  and  O_16
REMARK                            x       y       z     vdW  Elec       q    Type
REMARK                         _______ _______ _______ _____ _____    ______ ____
ROOT
ATOM      1  C   UNL     1      -8.619  -6.325   0.444  0.00  0.00    +0.000 A 
ATOM      2  C   UNL     1      -8.517  -7.526   1.130  0.00  0.00    +0.000 A 
ATOM      3  C   UNL     1      -7.288  -7.992   1.545  0.00  0.00    +0.000 A 
ATOM      4  C   UNL     1      -6.135  -7.266   1.275  0.00  0.00    +0.000 A 
ATOM      5  C   UNL     1      -6.232  -6.056   0.573  0.00  0.00    +0.000 A 
ATOM      6  C   UNL     1      -7.479  -5.596   0.167  0.00  0.00    +0.000 A 
ENDROOT
BRANCH   1   8
ATOM      7  C   UNL     1     -10.429  -4.748   0.609  0.00  0.00    +0.000 C 
ATOM      8  O   UNL     1      -9.874  -5.919   0.066  0.00  0.00    +0.000 OA
ENDBRANCH   1   8
BRANCH   4   9
ATOM      9  C   UNL     1      -4.790  -7.773   1.725  0.00  0.00    +0.000 C 
ATOM     10  O   UNL     1      -4.065  -8.330   0.932  0.00  0.00    +0.000 OA
BRANCH   9  11
ATOM     11  C   UNL     1      -4.366  -7.610   3.131  0.00  0.00    +0.000 A 
ATOM     12  C   UNL     1      -4.394  -8.687   4.009  0.00  0.00    +0.000 A 
ATOM     13  C   UNL     1      -4.005  -8.512   5.328  0.00  0.00    +0.000 A 
ATOM     14  C   UNL     1      -3.577  -7.262   5.770  0.00  0.00    +0.000 A 
ATOM     15  C   UNL     1      -3.563  -6.181   4.897  0.00  0.00    +0.000 A 
ATOM     16  C   UNL     1      -3.971  -6.349   3.572  0.00  0.00    +0.000 A 
ENDBRANCH   9  11
ENDBRANCH   4   9
BRANCH   5  17
ATOM     17  O   UNL     1      -5.106  -5.340   0.300  0.00  0.00    +0.000 OA
ATOM     18  H   UNL     1      -4.674  -4.806   1.013  0.00  0.00    +0.000 HD
ENDBRANCH   5  17
TORSDOF 4
ENDMDL
MODEL 5
REMARK VINA RESULT:      -4.2      2.155      2.723
REMARK  Name = ox2_shuffle_ligand
REMARK  5 active torsions:
REMARK  status: ('A' for Active; 'I' for Inactive)
REMARK    1  A    between atoms: C_1  and  O_2
REMARK    2  A    between atoms: O_2  and  C_3
REMARK    3  A    between atoms: C_6  and  C_7
REMARK    4  A    between atoms: C_7  and  C_9
REMARK    5  A    between atoms: C_15  and  O_16
REMARK                            x       y       z     vdW  Elec       q    Type
REMARK                         _______ _______ _______ _____ _____    ______ ____
ROOT
ATOM      1  C   UNL     1      -0.054  -2.468   7.739  0.00  0.00    +0.000 A 
ATOM      2  C   UNL     1      -0.730  -3.342   8.575  0.00  0.00    +0.000 A 
ATOM      3  C   UNL     1      -1.756  -4.125   8.089  0.00  0.00    +0.000 A 
ATOM      4  C   UNL     1      -2.128  -4.041   6.753  0.00  0.00    +0.000 A 
ATOM      5  C   UNL     1      -1.453  -3.151   5.905  0.00  0.00    +0.000 A 
ATOM      6  C   UNL     1      -0.418  -2.374   6.409  0.00  0.00    +0.000 A 
ENDROOT
BRANCH   1   8
ATOM      7  C   UNL     1       0.822  -0.333   8.417  0.00  0.00    +0.000 C 
ATOM      8  O   UNL     1       0.960  -1.724   8.289  0.00  0.00    +0.000 OA
ENDBRANCH   1   8
BRANCH   4   9
ATOM      9  C   UNL     1      -3.249  -4.893   6.218  0.00  0.00    +0.000 C 
ATOM     10  O   UNL     1      -3.336  -5.086   5.027  0.00  0.00    +0.000 OA
BRANCH   9  11
ATOM     11  C   UNL     1      -4.248  -5.474   7.140  0.00  0.00    +0.000 A 
ATOM     12  C   UNL     1      -4.210  -6.825   7.464  0.00  0.00    +0.000 A 
ATOM     13  C   UNL     1      -5.164  -7.355   8.320  0.00  0.00    +0.000 A 
ATOM     14  C   UNL     1      -6.151  -6.534   8.860  0.00  0.00    +0.000 A 
ATOM     15  C   UNL     1      -6.198  -5.186   8.524  0.00  0.00    +0.000 A 
ATOM     16  C   UNL     1      -5.250  -4.652   7.649  0.00  0.00    +0.000 A 
ENDBRANCH   9  11
ENDBRANCH   4   9
BRANCH   5  17
ATOM     17  O   UNL     1      -1.815  -3.060   4.594  0.00  0.00    +0.000 OA
ATOM     18  H   UNL     1      -2.644  -3.499   4.278  0.00  0.00    +0.000 HD
ENDBRANCH   5  17
TORSDOF 4
ENDMDL
MODEL 6
REMARK VINA RESULT:      -4.0      8.370     10.624
REMARK  Name = ox2_shuffle_ligand
REMARK  5 active torsions:
REMARK  status: ('A' for Active; 'I' for Inactive)
REMARK    1  A    between atoms: C_1  and  O_2
REMARK    2  A    between atoms: O_2  and  C_3
REMARK    3  A    between atoms: C_6  and  C_7
REMARK    4  A    between atoms: C_7  and  C_9
REMARK    5  A    between atoms: C_15  and  O_16
REMARK                            x       y       z     vdW  Elec       q    Type
REMARK                         _______ _______ _______ _____ _____    ______ ____
ROOT
ATOM      1  C   UNL     1      -7.070  -8.318   1.819  0.00  0.00    +0.000 A 
ATOM      2  C   UNL     1      -8.376  -8.325   2.285  0.00  0.00    +0.000 A 
ATOM      3  C   UNL     1      -9.299  -7.426   1.795  0.00  0.00    +0.000 A 
ATOM      4  C   UNL     1      -8.929  -6.497   0.831  0.00  0.00    +0.000 A 
ATOM      5  C   UNL     1      -7.607  -6.479   0.363  0.00  0.00    +0.000 A 
ATOM      6  C   UNL     1      -6.690  -7.396   0.863  0.00  0.00    +0.000 A 
ENDROOT
BRANCH   1   8
ATOM      7  C   UNL     1      -4.882  -8.883   2.646  0.00  0.00    +0.000 C 
ATOM      8  O   UNL     1      -6.206  -9.244   2.347  0.00  0.00    +0.000 OA
ENDBRANCH   1   8
BRANCH   4   9
ATOM      9  C   UNL     1      -9.934  -5.512   0.295  0.00  0.00    +0.000 C 
ATOM     10  O   UNL     1     -10.442  -5.706  -0.786  0.00  0.00    +0.000 OA
BRANCH   9  11
ATOM     11  C   UNL     1     -10.284  -4.306   1.074  0.00  0.00    +0.000 A 
ATOM     12  C   UNL     1      -9.583  -3.119   0.893  0.00  0.00    +0.000 A 
ATOM     13  C   UNL     1      -9.916  -2.001   1.643  0.00  0.00    +0.000 A 
ATOM     14  C   UNL     1     -10.957  -2.064   2.567  0.00  0.00    +0.000 A 
ATOM     15  C   UNL     1     -11.648  -3.254   2.758  0.00  0.00    +0.000 A 
ATOM     16  C   UNL     1     -11.304  -4.388   2.018  0.00  0.00    +0.000 A 
ENDBRANCH   9  11
ENDBRANCH   4   9
BRANCH   5  17
ATOM     17  O   UNL     1      -7.235  -5.568  -0.579  0.00  0.00    +0.000 OA
ATOM     18  H   UNL     1      -7.003  -5.868  -1.493  0.00  0.00    +0.000 HD
ENDBRANCH   5  17
TORSDOF 4
ENDMDL
MODEL 7
REMARK VINA RESULT:      -4.0      6.496      7.683
REMARK  Name = ox2_shuffle_ligand
REMARK  5 active torsions:
REMARK  status: ('A' for Active; 'I' for Inactive)
REMARK    1  A    between atoms: C_1  and  O_2
REMARK    2  A    between atoms: O_2  and  C_3
REMARK    3  A    between atoms: C_6  and  C_7
REMARK    4  A    between atoms: C_7  and  C_9
REMARK    5  A    between atoms: C_15  and  O_16
REMARK                            x       y       z     vdW  Elec       q    Type
REMARK                         _______ _______ _______ _____ _____    ______ ____
ROOT
ATOM      1  C   UNL     1       4.717  -3.677   4.890  0.00  0.00    +0.000 A 
ATOM      2  C   UNL     1       4.632  -5.056   5.000  0.00  0.00    +0.000 A 
ATOM      3  C   UNL     1       4.705  -5.854   3.878  0.00  0.00    +0.000 A 
ATOM      4  C   UNL     1       4.857  -5.283   2.621  0.00  0.00    +0.000 A 
ATOM      5  C   UNL     1       4.933  -3.887   2.503  0.00  0.00    +0.000 A 
ATOM      6  C   UNL     1       4.865  -3.098   3.644  0.00  0.00    +0.000 A 
ENDROOT
BRANCH   1   8
ATOM      7  C   UNL     1       3.396  -2.521   6.535  0.00  0.00    +0.000 C 
ATOM      8  O   UNL     1       4.643  -2.945   6.048  0.00  0.00    +0.000 OA
ENDBRANCH   1   8
BRANCH   4   9
ATOM      9  C   UNL     1       4.935  -6.151   1.392  0.00  0.00    +0.000 C 
ATOM     10  O   UNL     1       5.664  -5.832   0.481  0.00  0.00    +0.000 OA
BRANCH   9  11
ATOM     11  C   UNL     1       4.112  -7.374   1.291  0.00  0.00    +0.000 A 
ATOM     12  C   UNL     1       2.729  -7.289   1.186  0.00  0.00    +0.000 A 
ATOM     13  C   UNL     1       1.971  -8.448   1.106  0.00  0.00    +0.000 A 
ATOM     14  C   UNL     1       2.596  -9.693   1.121  0.00  0.00    +0.000 A 
ATOM     15  C   UNL     1       3.977  -9.779   1.242  0.00  0.00    +0.000 A 
ATOM     16  C   UNL     1       4.742  -8.615   1.341  0.00  0.00    +0.000 A 
ENDBRANCH   9  11
ENDBRANCH   4   9
BRANCH   5  17
ATOM     17  O   UNL     1       5.078  -3.319   1.273  0.00  0.00    +0.000 OA
ATOM     18  H   UNL     1       4.637  -2.457   1.071  0.00  0.00    +0.000 HD
ENDBRANCH   5  17
TORSDOF 4
ENDMDL
MODEL 8
REMARK VINA RESULT:      -4.0      1.191      1.858
REMARK  Name = ox2_shuffle_ligand
REMARK  5 active torsions:
REMARK  status: ('A' for Active; 'I' for Inactive)
REMARK    1  A    between atoms: C_1  and  O_2
REMARK    2  A    between atoms: O_2  and  C_3
REMARK    3  A    between atoms: C_6  and  C_7
REMARK    4  A    between atoms: C_7  and  C_9
REMARK    5  A    between atoms: C_15  and  O_16
REMARK                            x       y       z     vdW  Elec       q    Type
REMARK                         _______ _______ _______ _____ _____    ______ ____
ROOT
ATOM      1  C   UNL     1       0.052  -1.565   7.586  0.00  0.00    +0.000 A 
ATOM      2  C   UNL     1       0.562  -2.847   7.454  0.00  0.00    +0.000 A 
ATOM      3  C   UNL     1      -0.249  -3.946   7.640  0.00  0.00    +0.000 A 
ATOM      4  C   UNL     1      -1.588  -3.780   7.970  0.00  0.00    +0.000 A 
ATOM      5  C   UNL     1      -2.107  -2.485   8.115  0.00  0.00    +0.000 A 
ATOM      6  C   UNL     1      -1.278  -1.388   7.917  0.00  0.00    +0.000 A 
ENDROOT
BRANCH   1   8
ATOM      7  C   UNL     1       2.203  -0.755   6.874  0.00  0.00    +0.000 C 
ATOM      8  O   UNL     1       0.915  -0.517   7.381  0.00  0.00    +0.000 OA
ENDBRANCH   1   8
BRANCH   4   9
ATOM      9  C   UNL     1      -2.478  -4.978   8.176  0.00  0.00    +0.000 C 
ATOM     10  O   UNL     1      -2.852  -5.260   9.292  0.00  0.00    +0.000 OA
BRANCH   9  11
ATOM     11  C   UNL     1      -2.875  -5.817   7.026  0.00  0.00    +0.000 A 
ATOM     12  C   UNL     1      -2.859  -7.203   7.122  0.00  0.00    +0.000 A 
ATOM     13  C   UNL     1      -3.222  -7.975   6.029  0.00  0.00    +0.000 A 
ATOM     14  C   UNL     1      -3.612  -7.361   4.840  0.00  0.00    +0.000 A 
ATOM     15  C   UNL     1      -3.615  -5.976   4.739  0.00  0.00    +0.000 A 
ATOM     16  C   UNL     1      -3.233  -5.196   5.832  0.00  0.00    +0.000 A 
ENDBRANCH   9  11
ENDBRANCH   4   9
BRANCH   5  17
ATOM     17  O   UNL     1      -3.418  -2.314   8.442  0.00  0.00    +0.000 OA
ATOM     18  H   UNL     1      -3.867  -1.452   8.254  0.00  0.00    +0.000 HD
ENDBRANCH   5  17
TORSDOF 4
ENDMDL
MODEL 9
REMARK VINA RESULT:      -4.0      9.226     10.484
REMARK  Name = ox2_shuffle_ligand
REMARK  5 active torsions:
REMARK  status: ('A' for Active; 'I' for Inactive)
REMARK    1  A    between atoms: C_1  and  O_2
REMARK    2  A    between atoms: O_2  and  C_3
REMARK    3  A    between atoms: C_6  and  C_7
REMARK    4  A    between atoms: C_7  and  C_9
REMARK    5  A    between atoms: C_15  and  O_16
REMARK                            x       y       z     vdW  Elec       q    Type
REMARK                         _______ _______ _______ _____ _____    ______ ____
ROOT
ATOM      1  C   UNL     1      -8.397   3.923   3.213  0.00  0.00    +0.000 A 
ATOM      2  C   UNL     1      -9.672   3.394   3.341  0.00  0.00    +0.000 A 
ATOM      3  C   UNL     1      -9.862   2.029   3.386  0.00  0.00    +0.000 A 
ATOM      4  C   UNL     1      -8.777   1.167   3.296  0.00  0.00    +0.000 A 
ATOM      5  C   UNL     1      -7.486   1.697   3.157  0.00  0.00    +0.000 A 
ATOM      6  C   UNL     1      -7.310   3.075   3.121  0.00  0.00    +0.000 A 
ENDROOT
BRANCH   1   8
ATOM      7  C   UNL     1      -8.535   5.991   1.991  0.00  0.00    +0.000 C 
ATOM      8  O   UNL     1      -8.281   5.290   3.181  0.00  0.00    +0.000 OA
ENDBRANCH   1   8
BRANCH   4   9
ATOM      9  C   UNL     1      -8.981  -0.324   3.343  0.00  0.00    +0.000 C 
ATOM     10  O   UNL     1      -8.616  -0.947   4.314  0.00  0.00    +0.000 OA
BRANCH   9  11
ATOM     11  C   UNL     1      -9.606  -1.027   2.203  0.00  0.00    +0.000 A 
ATOM     12  C   UNL     1      -9.568  -0.477   0.927  0.00  0.00    +0.000 A 
ATOM     13  C   UNL     1     -10.172  -1.143  -0.129  0.00  0.00    +0.000 A 
ATOM     14  C   UNL     1     -10.805  -2.365   0.087  0.00  0.00    +0.000 A 
ATOM     15  C   UNL     1     -10.855  -2.909   1.365  0.00  0.00    +0.000 A 
ATOM     16  C   UNL     1     -10.264  -2.232   2.434  0.00  0.00    +0.000 A 
ENDBRANCH   9  11
ENDBRANCH   4   9
BRANCH   5  17
ATOM     17  O   UNL     1      -6.417   0.858   3.065  0.00  0.00    +0.000 OA
ATOM     18  H   UNL     1      -6.556  -0.121   3.044  0.00  0.00    +0.000 HD
ENDBRANCH   5  17
TORSDOF 4
ENDMDL
