REMARK  Name = shuffle_control_esm0_ligand
REMARK  12 active torsions:
REMARK  status: ('A' for Active; 'I' for Inactive)
REMARK    1  A    between atoms: C_1  and  C_2
REMARK    2  A    between atoms: C_2  and  C_3
REMARK    3  A    between atoms: C_3  and  C_4
REMARK    4  A    between atoms: C_4  and  C_5
REMARK    5  A    between atoms: C_5  and  C_6
REMARK    6  A    between atoms: C_5  and  O_8
REMARK    7  A    between atoms: C_6  and  C_7
REMARK    8  A    between atoms: O_8  and  C_9
REMARK    9  A    between atoms: C_9  and  C_11
REMARK   10  A    between atoms: C_12  and  C_13
REMARK   11  A    between atoms: C_16  and  O_17
REMARK   12  A    between atoms: O_17  and  C_18
REMARK                            x       y       z     vdW  Elec       q    Type
REMARK                         _______ _______ _______ _____ _____    ______ ____
ROOT
ATOM      1  C   UNL     1      -5.031   4.132  -3.237  0.00  0.00    +0.000 C 
ATOM      2  O   UNL     1      -4.701   3.519  -4.202  0.00  0.00    +0.000 OA
ENDROOT
BRANCH   1   3
ATOM      3  C   UNL     1      -4.402   3.970  -1.891  0.00  0.00    +0.000 C 
ATOM      4  C   UNL     1      -4.947   3.186  -0.977  0.00  0.00    +0.000 C 
BRANCH   4   5
ATOM      5  C   UNL     1      -4.441   3.080   0.424  0.00  0.00    +0.000 A 
ATOM      6  C   UNL     1      -5.339   3.206   1.454  0.00  0.00    +0.000 A 
ATOM      7  C   UNL     1      -4.920   3.145   2.775  0.00  0.00    +0.000 A 
ATOM      8  C   UNL     1      -3.587   2.944   3.078  0.00  0.00    +0.000 A 
ATOM      9  C   UNL     1      -2.674   2.807   2.031  0.00  0.00    +0.000 A 
ATOM     10  C   UNL     1      -3.104   2.866   0.702  0.00  0.00    +0.000 A 
BRANCH   8  11
ATOM     11  O   UNL     1      -3.136   2.890   4.349  0.00  0.00    +0.000 OA
ATOM     12  C   UNL     1      -4.041   3.132   5.425  0.00  0.00    +0.000 C 
ENDBRANCH   8  11
ENDBRANCH   4   5
ENDBRANCH   1   3
BRANCH   1  13
ATOM     13  O   UNL     1      -6.035   5.043  -3.279  0.00  0.00    +0.000 OA
BRANCH  13  14
ATOM     14  C   UNL     1      -6.847   5.236  -4.432  0.00  0.00    +0.000 C 
BRANCH  14  15
ATOM     15  C   UNL     1      -6.552   6.545  -5.141  0.00  0.00    +0.000 C 
ATOM     16  C   UNL     1      -5.214   6.652  -5.814  0.00  0.00    +0.000 C 
ENDBRANCH  14  15
BRANCH  14  17
ATOM     17  C   UNL     1      -8.274   5.266  -3.990  0.00  0.00    +0.000 C 
BRANCH  17  18
ATOM     18  C   UNL     1      -8.641   4.218  -2.997  0.00  0.00    +0.000 C 
BRANCH  18  20
ATOM     19  C   UNL     1     -11.036   5.091  -3.092  0.00  0.00    +0.000 C 
ATOM     20  C   UNL     1      -9.994   4.320  -2.360  0.00  0.00    +0.000 C 
ENDBRANCH  18  20
ENDBRANCH  17  18
ENDBRANCH  14  17
ENDBRANCH  13  14
ENDBRANCH   1  13
TORSDOF 9
