MODEL 1
REMARK VINA RESULT:      -4.9      0.000      0.000
REMARK  Name = shuffle_control_esm0_ligand
REMARK  12 active torsions:
REMARK  status: ('A' for Active; 'I' for Inactive)
REMARK    1  A    between atoms: C_1  and  C_2
REMARK    2  A    between atoms: C_2  and  C_3
REMARK    3  A    between atoms: C_3  and  C_4
REMARK    4  A    between atoms: C_4  and  C_5
REMARK    5  A    between atoms: C_5  and  C_6
REMARK    6  A    between atoms: C_5  and  O_8
REMARK    7  A    between atoms: C_6  and  C_7
REMARK    8  A    between atoms: O_8  and  C_9
REMARK    9  A    between atoms: C_9  and  C_11
REMARK   10  A    between atoms: C_12  and  C_13
REMARK   11  A    between atoms: C_16  and  O_17
REMARK   12  A    between atoms: O_17  and  C_18
REMARK                            x       y       z     vdW  Elec       q    Type
REMARK                         _______ _______ _______ _____ _____    ______ ____
ROOT
ATOM      1  C   UNL     1      -3.058   2.064  -2.247  0.00  0.00    +0.000 C 
ATOM      2  O   UNL     1      -4.142   1.576  -2.210  0.00  0.00    +0.000 OA
ENDROOT
BRANCH   1   3
ATOM      3  C   UNL     1      -1.879   1.426  -2.908  0.00  0.00    +0.000 C 
ATOM      4  C   UNL     1      -1.732   0.113  -2.913  0.00  0.00    +0.000 C 
BRANCH   4   5
ATOM      5  C   UNL     1      -0.518  -0.578  -3.442  0.00  0.00    +0.000 A 
ATOM      6  C   UNL     1      -0.689  -1.599  -4.343  0.00  0.00    +0.000 A 
ATOM      7  C   UNL     1       0.401  -2.294  -4.845  0.00  0.00    +0.000 A 
ATOM      8  C   UNL     1       1.684  -1.962  -4.454  0.00  0.00    +0.000 A 
ATOM      9  C   UNL     1       1.859  -0.918  -3.544  0.00  0.00    +0.000 A 
ATOM     10  C   UNL     1       0.756  -0.219  -3.045  0.00  0.00    +0.000 A 
BRANCH   8  11
ATOM     11  O   UNL     1       2.771  -2.620  -4.909  0.00  0.00    +0.000 OA
ATOM     12  C   UNL     1       3.589  -2.016  -5.910  0.00  0.00    +0.000 C 
ENDBRANCH   8  11
ENDBRANCH   4   5
ENDBRANCH   1   3
BRANCH   1  13
ATOM     13  O   UNL     1      -2.794   3.264  -1.671  0.00  0.00    +0.000 OA
BRANCH  13  14
ATOM     14  C   UNL     1      -3.103   3.545  -0.311  0.00  0.00    +0.000 C 
BRANCH  14  15
ATOM     15  C   UNL     1      -4.142   4.642  -0.163  0.00  0.00    +0.000 C 
ATOM     16  C   UNL     1      -5.579   4.218  -0.268  0.00  0.00    +0.000 C 
ENDBRANCH  14  15
BRANCH  14  17
ATOM     17  C   UNL     1      -1.851   4.008   0.359  0.00  0.00    +0.000 C 
BRANCH  17  18
ATOM     18  C   UNL     1      -2.065   4.830   1.583  0.00  0.00    +0.000 C 
BRANCH  18  20
ATOM     19  C   UNL     1      -1.496   5.247   4.035  0.00  0.00    +0.000 C 
ATOM     20  C   UNL     1      -1.449   4.337   2.857  0.00  0.00    +0.000 C 
ENDBRANCH  18  20
ENDBRANCH  17  18
ENDBRANCH  14  17
ENDBRANCH  13  14
ENDBRANCH   1  13
TORSDOF 9
ENDMDL
MODEL 2
REMARK VINA RESULT:      -4.8      2.300      7.747
REMARK  Name = shuffle_control_esm0_ligand
REMARK  12 active torsions:
REMARK  status: ('A' for Active; 'I' for Inactive)
REMARK    1  A    between atoms: C_1  and  C_2
REMARK    2  A    between atoms: C_2  and  C_3
REMARK    3  A    between atoms: C_3  and  C_4
REMARK    4  A    between atoms: C_4  and  C_5
REMARK    5  A    between atoms: C_5  and  C_6
REMARK    6  A    between atoms: C_5  and  O_8
REMARK    7  A    between atoms: C_6  and  C_7
REMARK    8  A    between atoms: O_8  and  C_9
REMARK    9  A    between atoms: C_9  and  C_11
REMARK   10  A    between atoms: C_12  and  C_13
REMARK   11  A    between atoms: C_16  and  O_17
REMARK   12  A    between atoms: O_17  and  C_18
REMARK                            x       y       z     vdW  Elec       q    Type
REMARK                         _______ _______ _______ _____ _____    ______ ____
ROOT
ATOM      1  C   UNL     1      -4.254   2.029  -2.090  0.00  0.00    +0.000 C 
ATOM      2  O   UNL     1      -5.402   1.726  -2.177  0.00  0.00    +0.000 OA
ENDROOT
BRANCH   1   3
ATOM      3  C   UNL     1      -3.660   2.713  -0.902  0.00  0.00    +0.000 C 
ATOM      4  C   UNL     1      -3.454   4.019  -0.904  0.00  0.00    +0.000 C 
BRANCH   4   5
ATOM      5  C   UNL     1      -2.750   4.742   0.197  0.00  0.00    +0.000 A 
ATOM      6  C   UNL     1      -2.016   4.009   1.095  0.00  0.00    +0.000 A 
ATOM      7  C   UNL     1      -1.365   4.626   2.154  0.00  0.00    +0.000 A 
ATOM      8  C   UNL     1      -1.435   5.996   2.316  0.00  0.00    +0.000 A 
ATOM      9  C   UNL     1      -2.174   6.744   1.398  0.00  0.00    +0.000 A 
ATOM     10  C   UNL     1      -2.825   6.116   0.331  0.00  0.00    +0.000 A 
BRANCH   8  11
ATOM     11  O   UNL     1      -0.827   6.634   3.338  0.00  0.00    +0.000 OA
ATOM     12  C   UNL     1      -0.286   5.873   4.417  0.00  0.00    +0.000 C 
ENDBRANCH   8  11
ENDBRANCH   4   5
ENDBRANCH   1   3
BRANCH   1  13
ATOM     13  O   UNL     1      -3.373   1.779  -3.090  0.00  0.00    +0.000 OA
BRANCH  13  14
ATOM     14  C   UNL     1      -2.028   1.382  -2.846  0.00  0.00    +0.000 C 
BRANCH  14  15
ATOM     15  C   UNL     1      -1.023   2.443  -3.256  0.00  0.00    +0.000 C 
ATOM     16  C   UNL     1      -0.146   2.988  -2.166  0.00  0.00    +0.000 C 
ENDBRANCH  14  15
BRANCH  14  17
ATOM     17  C   UNL     1      -1.756   0.156  -3.654  0.00  0.00    +0.000 C 
BRANCH  17  18
ATOM     18  C   UNL     1      -0.797  -0.800  -3.032  0.00  0.00    +0.000 C 
BRANCH  18  20
ATOM     19  C   UNL     1       1.669  -0.149  -2.998  0.00  0.00    +0.000 C 
ATOM     20  C   UNL     1       0.565  -0.906  -3.649  0.00  0.00    +0.000 C 
ENDBRANCH  18  20
ENDBRANCH  17  18
ENDBRANCH  14  17
ENDBRANCH  13  14
ENDBRANCH   1  13
TORSDOF 9
ENDMDL
MODEL 3
REMARK VINA RESULT:      -4.6      1.821      2.407
REMARK  Name = shuffle_control_esm0_ligand
REMARK  12 active torsions:
REMARK  status: ('A' for Active; 'I' for Inactive)
REMARK    1  A    between atoms: C_1  and  C_2
REMARK    2  A    between atoms: C_2  and  C_3
REMARK    3  A    between atoms: C_3  and  C_4
REMARK    4  A    between atoms: C_4  and  C_5
REMARK    5  A    between atoms: C_5  and  C_6
REMARK    6  A    between atoms: C_5  and  O_8
REMARK    7  A    between atoms: C_6  and  C_7
REMARK    8  A    between atoms: O_8  and  C_9
REMARK    9  A    between atoms: C_9  and  C_11
REMARK   10  A    between atoms: C_12  and  C_13
REMARK   11  A    between atoms: C_16  and  O_17
REMARK   12  A    between atoms: O_17  and  C_18
REMARK                            x       y       z     vdW  Elec       q    Type
REMARK                         _______ _______ _______ _____ _____    ______ ____
ROOT
ATOM      1  C   UNL     1      -1.805   2.919  -1.894  0.00  0.00    +0.000 C 
ATOM      2  O   UNL     1      -0.772   3.353  -1.493  0.00  0.00    +0.000 OA
ENDROOT
BRANCH   1   3
ATOM      3  C   UNL     1      -1.931   1.639  -2.656  0.00  0.00    +0.000 C 
ATOM      4  C   UNL     1      -0.867   1.046  -3.168  0.00  0.00    +0.000 C 
BRANCH   4   5
ATOM      5  C   UNL     1      -0.940  -0.161  -4.045  0.00  0.00    +0.000 A 
ATOM      6  C   UNL     1      -1.721  -0.104  -5.172  0.00  0.00    +0.000 A 
ATOM      7  C   UNL     1      -1.848  -1.205  -6.006  0.00  0.00    +0.000 A 
ATOM      8  C   UNL     1      -1.178  -2.379  -5.722  0.00  0.00    +0.000 A 
ATOM      9  C   UNL     1      -0.377  -2.436  -4.581  0.00  0.00    +0.000 A 
ATOM     10  C   UNL     1      -0.250  -1.321  -3.746  0.00  0.00    +0.000 A 
BRANCH   8  11
ATOM     11  O   UNL     1      -1.284  -3.477  -6.501  0.00  0.00    +0.000 OA
ATOM     12  C   UNL     1      -1.705  -3.336  -7.857  0.00  0.00    +0.000 C 
ENDBRANCH   8  11
ENDBRANCH   4   5
ENDBRANCH   1   3
BRANCH   1  13
ATOM     13  O   UNL     1      -2.978   3.570  -1.695  0.00  0.00    +0.000 OA
BRANCH  13  14
ATOM     14  C   UNL     1      -3.491   3.844  -0.396  0.00  0.00    +0.000 C 
BRANCH  14  15
ATOM     15  C   UNL     1      -4.990   3.627  -0.303  0.00  0.00    +0.000 C 
ATOM     16  C   UNL     1      -5.858   4.738  -0.817  0.00  0.00    +0.000 C 
ENDBRANCH  14  15
BRANCH  14  17
ATOM     17  C   UNL     1      -3.217   5.280  -0.087  0.00  0.00    +0.000 C 
BRANCH  17  18
ATOM     18  C   UNL     1      -2.244   5.505   1.018  0.00  0.00    +0.000 C 
BRANCH  18  20
ATOM     19  C   UNL     1      -1.436   4.445   3.193  0.00  0.00    +0.000 C 
ATOM     20  C   UNL     1      -1.737   4.295   1.743  0.00  0.00    +0.000 C 
ENDBRANCH  18  20
ENDBRANCH  17  18
ENDBRANCH  14  17
ENDBRANCH  13  14
ENDBRANCH   1  13
TORSDOF 9
ENDMDL
MODEL 4
REMARK VINA RESULT:      -4.6      2.973      8.893
REMARK  Name = shuffle_control_esm0_ligand
REMARK  12 active torsions:
REMARK  status: ('A' for Active; 'I' for Inactive)
REMARK    1  A    between atoms: C_1  and  C_2
REMARK    2  A    between atoms: C_2  and  C_3
REMARK    3  A    between atoms: C_3  and  C_4
REMARK    4  A    between atoms: C_4  and  C_5
REMARK    5  A    between atoms: C_5  and  C_6
REMARK    6  A    between atoms: C_5  and  O_8
REMARK    7  A    between atoms: C_6  and  C_7
REMARK    8  A    between atoms: O_8  and  C_9
REMARK    9  A    between atoms: C_9  and  C_11
REMARK   10  A    between atoms: C_12  and  C_13
REMARK   11  A    between atoms: C_16  and  O_17
REMARK   12  A    between atoms: O_17  and  C_18
REMARK                            x       y       z     vdW  Elec       q    Type
REMARK                         _______ _______ _______ _____ _____    ______ ____
ROOT
ATOM      1  C   UNL     1       0.084  -2.117  -4.673  0.00  0.00    +0.000 C 
ATOM      2  O   UNL     1       1.214  -2.394  -4.922  0.00  0.00    +0.000 OA
ENDROOT
BRANCH   1   3
ATOM      3  C   UNL     1      -0.319  -1.055  -3.701  0.00  0.00    +0.000 C 
ATOM      4  C   UNL     1      -0.899   0.058  -4.114  0.00  0.00    +0.000 C 
BRANCH   4   5
ATOM      5  C   UNL     1      -1.210   1.208  -3.213  0.00  0.00    +0.000 A 
ATOM      6  C   UNL     1      -0.193   2.066  -2.875  0.00  0.00    +0.000 A 
ATOM      7  C   UNL     1      -0.419   3.134  -2.019  0.00  0.00    +0.000 A 
ATOM      8  C   UNL     1      -1.678   3.359  -1.497  0.00  0.00    +0.000 A 
ATOM      9  C   UNL     1      -2.714   2.492  -1.846  0.00  0.00    +0.000 A 
ATOM     10  C   UNL     1      -2.481   1.420  -2.713  0.00  0.00    +0.000 A 
BRANCH   8  11
ATOM     11  O   UNL     1      -1.937   4.379  -0.651  0.00  0.00    +0.000 OA
ATOM     12  C   UNL     1      -3.062   4.296   0.223  0.00  0.00    +0.000 C 
ENDBRANCH   8  11
ENDBRANCH   4   5
ENDBRANCH   1   3
BRANCH   1  13
ATOM     13  O   UNL     1      -0.955  -2.763  -5.257  0.00  0.00    +0.000 OA
BRANCH  13  14
ATOM     14  C   UNL     1      -1.179  -2.740  -6.663  0.00  0.00    +0.000 C 
BRANCH  14  15
ATOM     15  C   UNL     1      -1.884  -1.477  -7.121  0.00  0.00    +0.000 C 
ATOM     16  C   UNL     1      -3.337  -1.357  -6.764  0.00  0.00    +0.000 C 
ENDBRANCH  14  15
BRANCH  14  17
ATOM     17  C   UNL     1      -2.052  -3.903  -7.009  0.00  0.00    +0.000 C 
BRANCH  17  18
ATOM     18  C   UNL     1      -1.865  -4.434  -8.388  0.00  0.00    +0.000 C 
BRANCH  18  20
ATOM     19  C   UNL     1      -3.851  -5.978  -7.966  0.00  0.00    +0.000 C 
ATOM     20  C   UNL     1      -2.627  -5.671  -8.756  0.00  0.00    +0.000 C 
ENDBRANCH  18  20
ENDBRANCH  17  18
ENDBRANCH  14  17
ENDBRANCH  13  14
ENDBRANCH   1  13
TORSDOF 9
ENDMDL
MODEL 5
REMARK VINA RESULT:      -4.5      1.863      2.569
REMARK  Name = shuffle_control_esm0_ligand
REMARK  12 active torsions:
REMARK  status: ('A' for Active; 'I' for Inactive)
REMARK    1  A    between atoms: C_1  and  C_2
REMARK    2  A    between atoms: C_2  and  C_3
REMARK    3  A    between atoms: C_3  and  C_4
REMARK    4  A    between atoms: C_4  and  C_5
REMARK    5  A    between atoms: C_5  and  C_6
REMARK    6  A    between atoms: C_5  and  O_8
REMARK    7  A    between atoms: C_6  and  C_7
REMARK    8  A    between atoms: O_8  and  C_9
REMARK    9  A    between atoms: C_9  and  C_11
REMARK   10  A    between atoms: C_12  and  C_13
REMARK   11  A    between atoms: C_16  and  O_17
REMARK   12  A    between atoms: O_17  and  C_18
REMARK                            x       y       z     vdW  Elec       q    Type
REMARK                         _______ _______ _______ _____ _____    ______ ____
ROOT
ATOM      1  C   UNL     1      -4.952   2.365  -2.251  0.00  0.00    +0.000 C 
ATOM      2  O   UNL     1      -5.939   1.836  -2.654  0.00  0.00    +0.000 OA
ENDROOT
BRANCH   1   3
ATOM      3  C   UNL     1      -3.621   1.690  -2.167  0.00  0.00    +0.000 C 
ATOM      4  C   UNL     1      -2.649   1.999  -3.008  0.00  0.00    +0.000 C 
BRANCH   4   5
ATOM      5  C   UNL     1      -1.344   1.276  -3.060  0.00  0.00    +0.000 A 
ATOM      6  C   UNL     1      -1.359  -0.092  -3.169  0.00  0.00    +0.000 A 
ATOM      7  C   UNL     1      -0.177  -0.817  -3.191  0.00  0.00    +0.000 A 
ATOM      8  C   UNL     1       1.042  -0.172  -3.116  0.00  0.00    +0.000 A 
ATOM      9  C   UNL     1       1.059   1.220  -3.013  0.00  0.00    +0.000 A 
ATOM     10  C   UNL     1      -0.136   1.945  -2.994  0.00  0.00    +0.000 A 
BRANCH   8  11
ATOM     11  O   UNL     1       2.215  -0.840  -3.122  0.00  0.00    +0.000 OA
ATOM     12  C   UNL     1       3.436  -0.114  -2.995  0.00  0.00    +0.000 C 
ENDBRANCH   8  11
ENDBRANCH   4   5
ENDBRANCH   1   3
BRANCH   1  13
ATOM     13  O   UNL     1      -4.956   3.649  -1.817  0.00  0.00    +0.000 OA
BRANCH  13  14
ATOM     14  C   UNL     1      -5.112   3.994  -0.445  0.00  0.00    +0.000 C 
BRANCH  14  15
ATOM     15  C   UNL     1      -6.449   4.652  -0.157  0.00  0.00    +0.000 C 
ATOM     16  C   UNL     1      -6.958   5.611  -1.194  0.00  0.00    +0.000 C 
ENDBRANCH  14  15
BRANCH  14  17
ATOM     17  C   UNL     1      -4.037   4.969  -0.090  0.00  0.00    +0.000 C 
BRANCH  17  18
ATOM     18  C   UNL     1      -2.822   4.361   0.522  0.00  0.00    +0.000 C 
BRANCH  18  20
ATOM     19  C   UNL     1      -1.549   5.188  -1.528  0.00  0.00    +0.000 C 
ATOM     20  C   UNL     1      -1.575   4.334  -0.309  0.00  0.00    +0.000 C 
ENDBRANCH  18  20
ENDBRANCH  17  18
ENDBRANCH  14  17
ENDBRANCH  13  14
ENDBRANCH   1  13
TORSDOF 9
ENDMDL
MODEL 6
REMARK VINA RESULT:      -4.5      3.262      6.079
REMARK  Name = shuffle_control_esm0_ligand
REMARK  12 active torsions:
REMARK  status: ('A' for Active; 'I' for Inactive)
REMARK    1  A    between atoms: C_1  and  C_2
REMARK    2  A    between atoms: C_2  and  C_3
REMARK    3  A    between atoms: C_3  and  C_4
REMARK    4  A    between atoms: C_4  and  C_5
REMARK    5  A    between atoms: C_5  and  C_6
REMARK    6  A    between atoms: C_5  and  O_8
REMARK    7  A    between atoms: C_6  and  C_7
REMARK    8  A    between atoms: O_8  and  C_9
REMARK    9  A    between atoms: C_9  and  C_11
REMARK   10  A    between atoms: C_12  and  C_13
REMARK   11  A    between atoms: C_16  and  O_17
REMARK   12  A    between atoms: O_17  and  C_18
REMARK                            x       y       z     vdW  Elec       q    Type
REMARK                         _______ _______ _______ _____ _____    ______ ____
ROOT
ATOM      1  C   UNL     1      -1.328   4.891   3.476  0.00  0.00    +0.000 C 
ATOM      2  O   UNL     1      -2.161   4.924   4.325  0.00  0.00    +0.000 OA
ENDROOT
BRANCH   1   3
ATOM      3  C   UNL     1      -1.459   4.111   2.208  0.00  0.00    +0.000 C 
ATOM      4  C   UNL     1      -2.155   4.584   1.189  0.00  0.00    +0.000 C 
BRANCH   4   5
ATOM      5  C   UNL     1      -2.430   3.802  -0.053  0.00  0.00    +0.000 A 
ATOM      6  C   UNL     1      -3.699   3.321  -0.255  0.00  0.00    +0.000 A 
ATOM      7  C   UNL     1      -4.004   2.564  -1.377  0.00  0.00    +0.000 A 
ATOM      8  C   UNL     1      -3.033   2.290  -2.321  0.00  0.00    +0.000 A 
ATOM      9  C   UNL     1      -1.743   2.786  -2.121  0.00  0.00    +0.000 A 
ATOM     10  C   UNL     1      -1.445   3.552  -0.990  0.00  0.00    +0.000 A 
BRANCH   8  11
ATOM     11  O   UNL     1      -3.284   1.548  -3.420  0.00  0.00    +0.000 OA
ATOM     12  C   UNL     1      -2.193   1.025  -4.177  0.00  0.00    +0.000 C 
ENDBRANCH   8  11
ENDBRANCH   4   5
ENDBRANCH   1   3
BRANCH   1  13
ATOM     13  O   UNL     1      -0.159   5.569   3.597  0.00  0.00    +0.000 OA
BRANCH  13  14
ATOM     14  C   UNL     1      -0.074   6.982   3.450  0.00  0.00    +0.000 C 
BRANCH  14  15
ATOM     15  C   UNL     1      -1.397   7.608   3.049  0.00  0.00    +0.000 C 
ATOM     16  C   UNL     1      -1.909   8.709   3.933  0.00  0.00    +0.000 C 
ENDBRANCH  14  15
BRANCH  14  17
ATOM     17  C   UNL     1       0.916   7.273   2.369  0.00  0.00    +0.000 C 
BRANCH  17  18
ATOM     18  C   UNL     1       0.327   7.437   1.011  0.00  0.00    +0.000 C 
BRANCH  18  20
ATOM     19  C   UNL     1       1.582   5.305   0.389  0.00  0.00    +0.000 C 
ATOM     20  C   UNL     1       0.760   6.467  -0.047  0.00  0.00    +0.000 C 
ENDBRANCH  18  20
ENDBRANCH  17  18
ENDBRANCH  14  17
ENDBRANCH  13  14
ENDBRANCH   1  13
TORSDOF 9
ENDMDL
MODEL 7
REMARK VINA RESULT:      -4.5      1.804      2.332
REMARK  Name = shuffle_control_esm0_ligand
REMARK  12 active torsions:
REMARK  status: ('A' for Active; 'I' for Inactive)
REMARK    1  A    between atoms: C_1  and  C_2
REMARK    2  A    between atoms: C_2  and  C_3
REMARK    3  A    between atoms: C_3  and  C_4
REMARK    4  A    between atoms: C_4  and  C_5
REMARK    5  A    between atoms: C_5  and  C_6
REMARK    6  A    between atoms: C_5  and  O_8
REMARK    7  A    between atoms: C_6  and  C_7
REMARK    8  A    between atoms: O_8  and  C_9
REMARK    9  A    between atoms: C_9  and  C_11
REMARK   10  A    between atoms: C_12  and  C_13
REMARK   11  A    between atoms: C_16  and  O_17
REMARK   12  A    between atoms: O_17  and  C_18
REMARK                            x       y       z     vdW  Elec       q    Type
REMARK                         _______ _______ _______ _____ _____    ______ ____
ROOT
ATOM      1  C   UNL     1      -3.633   2.693  -1.306  0.00  0.00    +0.000 C 
ATOM      2  O   UNL     1      -4.732   2.913  -0.907  0.00  0.00    +0.000 OA
ENDROOT
BRANCH   1   3
ATOM      3  C   UNL     1      -3.299   1.597  -2.266  0.00  0.00    +0.000 C 
ATOM      4  C   UNL     1      -2.044   1.338  -2.591  0.00  0.00    +0.000 C 
BRANCH   4   5
ATOM      5  C   UNL     1      -1.652   0.346  -3.636  0.00  0.00    +0.000 A 
ATOM      6  C   UNL     1      -0.828  -0.690  -3.277  0.00  0.00    +0.000 A 
ATOM      7  C   UNL     1      -0.409  -1.624  -4.213  0.00  0.00    +0.000 A 
ATOM      8  C   UNL     1      -0.825  -1.533  -5.527  0.00  0.00    +0.000 A 
ATOM      9  C   UNL     1      -1.671  -0.484  -5.892  0.00  0.00    +0.000 A 
ATOM     10  C   UNL     1      -2.092   0.451  -4.942  0.00  0.00    +0.000 A 
BRANCH   8  11
ATOM     11  O   UNL     1      -0.432  -2.413  -6.472  0.00  0.00    +0.000 OA
ATOM     12  C   UNL     1      -1.310  -2.721  -7.553  0.00  0.00    +0.000 C 
ENDBRANCH   8  11
ENDBRANCH   4   5
ENDBRANCH   1   3
BRANCH   1  13
ATOM     13  O   UNL     1      -2.567   3.430  -0.906  0.00  0.00    +0.000 OA
BRANCH  13  14
ATOM     14  C   UNL     1      -2.650   4.394   0.137  0.00  0.00    +0.000 C 
BRANCH  14  15
ATOM     15  C   UNL     1      -2.771   5.813  -0.388  0.00  0.00    +0.000 C 
ATOM     16  C   UNL     1      -4.161   6.372  -0.488  0.00  0.00    +0.000 C 
ENDBRANCH  14  15
BRANCH  14  17
ATOM     17  C   UNL     1      -1.395   4.310   0.944  0.00  0.00    +0.000 C 
BRANCH  17  18
ATOM     18  C   UNL     1      -1.605   4.242   2.417  0.00  0.00    +0.000 C 
BRANCH  18  20
ATOM     19  C   UNL     1      -1.816   5.532   4.608  0.00  0.00    +0.000 C 
ATOM     20  C   UNL     1      -1.306   5.479   3.210  0.00  0.00    +0.000 C 
ENDBRANCH  18  20
ENDBRANCH  17  18
ENDBRANCH  14  17
ENDBRANCH  13  14
ENDBRANCH   1  13
TORSDOF 9
ENDMDL
MODEL 8
REMARK VINA RESULT:      -4.5      1.992      3.784
REMARK  Name = shuffle_control_esm0_ligand
REMARK  12 active torsions:
REMARK  status: ('A' for Active; 'I' for Inactive)
REMARK    1  A    between atoms: C_1  and  C_2
REMARK    2  A    between atoms: C_2  and  C_3
REMARK    3  A    between atoms: C_3  and  C_4
REMARK    4  A    between atoms: C_4  and  C_5
REMARK    5  A    between atoms: C_5  and  C_6
REMARK    6  A    between atoms: C_5  and  O_8
REMARK    7  A    between atoms: C_6  and  C_7
REMARK    8  A    between atoms: O_8  and  C_9
REMARK    9  A    between atoms: C_9  and  C_11
REMARK   10  A    between atoms: C_12  and  C_13
REMARK   11  A    between atoms: C_16  and  O_17
REMARK   12  A    between atoms: O_17  and  C_18
REMARK                            x       y       z     vdW  Elec       q    Type
REMARK                         _______ _______ _______ _____ _____    ______ ____
ROOT
ATOM      1  C   UNL     1      -0.611   3.256  -1.898  0.00  0.00    +0.000 C 
ATOM      2  O   UNL     1       0.154   4.164  -1.815  0.00  0.00    +0.000 OA
ENDROOT
BRANCH   1   3
ATOM      3  C   UNL     1      -0.539   2.200  -2.953  0.00  0.00    +0.000 C 
ATOM      4  C   UNL     1      -1.281   1.109  -2.872  0.00  0.00    +0.000 C 
BRANCH   4   5
ATOM      5  C   UNL     1      -1.165  -0.038  -3.821  0.00  0.00    +0.000 A 
ATOM      6  C   UNL     1      -1.849   0.025  -5.009  0.00  0.00    +0.000 A 
ATOM      7  C   UNL     1      -1.800  -1.024  -5.915  0.00  0.00    +0.000 A 
ATOM      8  C   UNL     1      -1.049  -2.151  -5.642  0.00  0.00    +0.000 A 
ATOM      9  C   UNL     1      -0.345  -2.213  -4.438  0.00  0.00    +0.000 A 
ATOM     10  C   UNL     1      -0.396  -1.150  -3.530  0.00  0.00    +0.000 A 
BRANCH   8  11
ATOM     11  O   UNL     1      -0.983  -3.198  -6.491  0.00  0.00    +0.000 OA
ATOM     12  C   UNL     1      -2.189  -3.825  -6.925  0.00  0.00    +0.000 C 
ENDBRANCH   8  11
ENDBRANCH   4   5
ENDBRANCH   1   3
BRANCH   1  13
ATOM     13  O   UNL     1      -1.640   3.108  -1.027  0.00  0.00    +0.000 OA
BRANCH  13  14
ATOM     14  C   UNL     1      -2.282   4.215  -0.404  0.00  0.00    +0.000 C 
BRANCH  14  15
ATOM     15  C   UNL     1      -2.120   4.210   1.105  0.00  0.00    +0.000 C 
ATOM     16  C   UNL     1      -0.899   4.896   1.647  0.00  0.00    +0.000 C 
ENDBRANCH  14  15
BRANCH  14  17
ATOM     17  C   UNL     1      -3.743   4.130  -0.708  0.00  0.00    +0.000 C 
BRANCH  17  18
ATOM     18  C   UNL     1      -4.260   2.747  -0.901  0.00  0.00    +0.000 C 
BRANCH  18  20
ATOM     19  C   UNL     1      -4.312   3.181  -3.414  0.00  0.00    +0.000 C 
ATOM     20  C   UNL     1      -4.819   2.405  -2.249  0.00  0.00    +0.000 C 
ENDBRANCH  18  20
ENDBRANCH  17  18
ENDBRANCH  14  17
ENDBRANCH  13  14
ENDBRANCH   1  13
TORSDOF 9
ENDMDL
MODEL 9
REMARK VINA RESULT:      -4.5      3.037      7.589
REMARK  Name = shuffle_control_esm0_ligand
REMARK  12 active torsions:
REMARK  status: ('A' for Active; 'I' for Inactive)
REMARK    1  A    between atoms: C_1  and  C_2
REMARK    2  A    between atoms: C_2  and  C_3
REMARK    3  A    between atoms: C_3  and  C_4
REMARK    4  A    between atoms: C_4  and  C_5
REMARK    5  A    between atoms: C_5  and  C_6
REMARK    6  A    between atoms: C_5  and  O_8
REMARK    7  A    between atoms: C_6  and  C_7
REMARK    8  A    between atoms: O_8  and  C_9
REMARK    9  A    between atoms: C_9  and  C_11
REMARK   10  A    between atoms: C_12  and  C_13
REMARK   11  A    between atoms: C_16  and  O_17
REMARK   12  A    between atoms: O_17  and  C_18
REMARK                            x       y       z     vdW  Elec       q    Type
REMARK                         _______ _______ _______ _____ _____    ______ ____
ROOT
ATOM      1  C   UNL     1      -4.243   1.981  -1.929  0.00  0.00    +0.000 C 
ATOM      2  O   UNL     1      -5.411   2.024  -2.155  0.00  0.00    +0.000 OA
ENDROOT
BRANCH   1   3
ATOM      3  C   UNL     1      -3.577   2.749  -0.834  0.00  0.00    +0.000 C 
ATOM      4  C   UNL     1      -3.638   4.069  -0.796  0.00  0.00    +0.000 C 
BRANCH   4   5
ATOM      5  C   UNL     1      -2.890   4.900   0.195  0.00  0.00    +0.000 A 
ATOM      6  C   UNL     1      -2.219   4.262   1.207  0.00  0.00    +0.000 A 
ATOM      7  C   UNL     1      -1.533   4.984   2.172  0.00  0.00    +0.000 A 
ATOM      8  C   UNL     1      -1.504   6.365   2.124  0.00  0.00    +0.000 A 
ATOM      9  C   UNL     1      -2.179   7.015   1.090  0.00  0.00    +0.000 A 
ATOM     10  C   UNL     1      -2.866   6.280   0.119  0.00  0.00    +0.000 A 
BRANCH   8  11
ATOM     11  O   UNL     1      -0.858   7.106   3.049  0.00  0.00    +0.000 OA
ATOM     12  C   UNL     1      -1.463   8.303   3.535  0.00  0.00    +0.000 C 
ENDBRANCH   8  11
ENDBRANCH   4   5
ENDBRANCH   1   3
BRANCH   1  13
ATOM     13  O   UNL     1      -3.400   1.221  -2.671  0.00  0.00    +0.000 OA
BRANCH  13  14
ATOM     14  C   UNL     1      -2.368   1.782  -3.475  0.00  0.00    +0.000 C 
BRANCH  14  15
ATOM     15  C   UNL     1      -2.596   1.557  -4.958  0.00  0.00    +0.000 C 
ATOM     16  C   UNL     1      -2.519   2.772  -5.837  0.00  0.00    +0.000 C 
ENDBRANCH  14  15
BRANCH  14  17
ATOM     17  C   UNL     1      -1.083   1.118  -3.103  0.00  0.00    +0.000 C 
BRANCH  17  18
ATOM     18  C   UNL     1       0.040   2.053  -2.812  0.00  0.00    +0.000 C 
BRANCH  18  20
ATOM     19  C   UNL     1       0.474   4.064  -1.303  0.00  0.00    +0.000 C 
ATOM     20  C   UNL     1      -0.318   3.450  -2.405  0.00  0.00    +0.000 C 
ENDBRANCH  18  20
ENDBRANCH  17  18
ENDBRANCH  14  17
ENDBRANCH  13  14
ENDBRANCH   1  13
TORSDOF 9
ENDMDL
