REMARK  Name = ox2_esm1_f8_ligand
REMARK  5 active torsions:
REMARK  status: ('A' for Active; 'I' for Inactive)
REMARK    1  A    between atoms: C_1  and  O_2
REMARK    2  A    between atoms: O_2  and  C_3
REMARK    3  A    between atoms: C_6  and  C_7
REMARK    4  A    between atoms: C_7  and  C_9
REMARK    5  A    between atoms: C_15  and  O_16
REMARK                            x       y       z     vdW  Elec       q    Type
REMARK                         _______ _______ _______ _____ _____    ______ ____
ROOT
ATOM      1  C   UNL     1       2.358  -0.908   0.648  0.00  0.00    +0.000 A 
ATOM      2  C   UNL     1       0.989  -0.662   0.571  0.00  0.00    +0.000 A 
ATOM      3  C   UNL     1       0.353   0.058   1.566  0.00  0.00    +0.000 A 
ATOM      4  C   UNL     1       1.068   0.527   2.654  0.00  0.00    +0.000 A 
ATOM      5  C   UNL     1       2.447   0.285   2.738  0.00  0.00    +0.000 A 
ATOM      6  C   UNL     1       3.078  -0.433   1.722  0.00  0.00    +0.000 A 
ENDROOT
BRANCH   1   8
ATOM      7  C   UNL     1       2.310  -2.123  -1.452  0.00  0.00    +0.000 C 
ATOM      8  O   UNL     1       3.032  -1.605  -0.311  0.00  0.00    +0.000 OA
ENDBRANCH   1   8
BRANCH   4   9
ATOM      9  C   UNL     1       0.393   1.297   3.743  0.00  0.00    +0.000 C 
ATOM     10  O   UNL     1       1.062   1.919   4.541  0.00  0.00    +0.000 OA
BRANCH   9  11
ATOM     11  C   UNL     1      -1.079   1.329   3.861  0.00  0.00    +0.000 A 
ATOM     12  C   UNL     1      -1.738   2.550   3.965  0.00  0.00    +0.000 A 
ATOM     13  C   UNL     1      -3.126   2.578   4.066  0.00  0.00    +0.000 A 
ATOM     14  C   UNL     1      -3.863   1.403   4.102  0.00  0.00    +0.000 A 
ATOM     15  C   UNL     1      -3.196   0.189   4.040  0.00  0.00    +0.000 A 
ATOM     16  C   UNL     1      -1.807   0.150   3.917  0.00  0.00    +0.000 A 
ENDBRANCH   9  11
ENDBRANCH   4   9
BRANCH   5  17
ATOM     17  O   UNL     1       3.147   0.761   3.813  0.00  0.00    +0.000 OA
ATOM     18  H   UNL     1       4.120   0.596   3.882  0.00  0.00    +0.000 HD
ENDBRANCH   5  17
TORSDOF 4
