MODEL 1
REMARK VINA RESULT:      -5.2      0.000      0.000
REMARK  Name = ox2_esm1_f8_ligand
REMARK  5 active torsions:
REMARK  status: ('A' for Active; 'I' for Inactive)
REMARK    1  A    between atoms: C_1  and  O_2
REMARK    2  A    between atoms: O_2  and  C_3
REMARK    3  A    between atoms: C_6  and  C_7
REMARK    4  A    between atoms: C_7  and  C_9
REMARK    5  A    between atoms: C_15  and  O_16
REMARK                            x       y       z     vdW  Elec       q    Type
REMARK                         _______ _______ _______ _____ _____    ______ ____
ROOT
ATOM      1  C   UNL     1       7.107   5.181  -0.228  0.00  0.00    +0.000 A 
ATOM      2  C   UNL     1       6.604   4.556  -1.367  0.00  0.00    +0.000 A 
ATOM      3  C   UNL     1       5.814   3.427  -1.251  0.00  0.00    +0.000 A 
ATOM      4  C   UNL     1       5.529   2.899  -0.004  0.00  0.00    +0.000 A 
ATOM      5  C   UNL     1       6.030   3.524   1.147  0.00  0.00    +0.000 A 
ATOM      6  C   UNL     1       6.816   4.668   1.017  0.00  0.00    +0.000 A 
ENDROOT
BRANCH   1   8
ATOM      7  C   UNL     1       8.724   6.644   0.836  0.00  0.00    +0.000 C 
ATOM      8  O   UNL     1       7.884   6.300  -0.290  0.00  0.00    +0.000 OA
ENDBRANCH   1   8
BRANCH   4   9
ATOM      9  C   UNL     1       4.685   1.673   0.137  0.00  0.00    +0.000 C 
ATOM     10  O   UNL     1       3.851   1.617   1.016  0.00  0.00    +0.000 OA
BRANCH   9  11
ATOM     11  C   UNL     1       4.836   0.528  -0.784  0.00  0.00    +0.000 A 
ATOM     12  C   UNL     1       3.741   0.082  -1.517  0.00  0.00    +0.000 A 
ATOM     13  C   UNL     1       3.888  -0.991  -2.392  0.00  0.00    +0.000 A 
ATOM     14  C   UNL     1       5.103  -1.648  -2.517  0.00  0.00    +0.000 A 
ATOM     15  C   UNL     1       6.179  -1.225  -1.751  0.00  0.00    +0.000 A 
ATOM     16  C   UNL     1       6.048  -0.137  -0.888  0.00  0.00    +0.000 A 
ENDBRANCH   9  11
ENDBRANCH   4   9
BRANCH   5  17
ATOM     17  O   UNL     1       5.734   3.000   2.377  0.00  0.00    +0.000 OA
ATOM     18  H   UNL     1       6.461   2.674   2.963  0.00  0.00    +0.000 HD
ENDBRANCH   5  17
TORSDOF 4
ENDMDL
MODEL 2
REMARK VINA RESULT:      -5.2      3.370      6.375
REMARK  Name = ox2_esm1_f8_ligand
REMARK  5 active torsions:
REMARK  status: ('A' for Active; 'I' for Inactive)
REMARK    1  A    between atoms: C_1  and  O_2
REMARK    2  A    between atoms: O_2  and  C_3
REMARK    3  A    between atoms: C_6  and  C_7
REMARK    4  A    between atoms: C_7  and  C_9
REMARK    5  A    between atoms: C_15  and  O_16
REMARK                            x       y       z     vdW  Elec       q    Type
REMARK                         _______ _______ _______ _____ _____    ______ ____
ROOT
ATOM      1  C   UNL     1       8.075  -2.768  -2.678  0.00  0.00    +0.000 A 
ATOM      2  C   UNL     1       6.822  -2.719  -2.070  0.00  0.00    +0.000 A 
ATOM      3  C   UNL     1       6.161  -1.513  -1.930  0.00  0.00    +0.000 A 
ATOM      4  C   UNL     1       6.745  -0.341  -2.379  0.00  0.00    +0.000 A 
ATOM      5  C   UNL     1       8.005  -0.381  -2.994  0.00  0.00    +0.000 A 
ATOM      6  C   UNL     1       8.656  -1.607  -3.138  0.00  0.00    +0.000 A 
ENDROOT
BRANCH   1   8
ATOM      7  C   UNL     1      10.144  -3.888  -3.271  0.00  0.00    +0.000 C 
ATOM      8  O   UNL     1       8.762  -3.933  -2.847  0.00  0.00    +0.000 OA
ENDBRANCH   1   8
BRANCH   4   9
ATOM      9  C   UNL     1       6.048   0.973  -2.225  0.00  0.00    +0.000 C 
ATOM     10  O   UNL     1       5.709   1.591  -3.212  0.00  0.00    +0.000 OA
BRANCH   9  11
ATOM     11  C   UNL     1       5.749   1.531  -0.891  0.00  0.00    +0.000 A 
ATOM     12  C   UNL     1       6.752   2.169  -0.167  0.00  0.00    +0.000 A 
ATOM     13  C   UNL     1       6.465   2.702   1.086  0.00  0.00    +0.000 A 
ATOM     14  C   UNL     1       5.201   2.576   1.643  0.00  0.00    +0.000 A 
ATOM     15  C   UNL     1       4.218   1.902   0.934  0.00  0.00    +0.000 A 
ATOM     16  C   UNL     1       4.489   1.382  -0.332  0.00  0.00    +0.000 A 
ENDBRANCH   9  11
ENDBRANCH   4   9
BRANCH   5  17
ATOM     17  O   UNL     1       8.570   0.781  -3.443  0.00  0.00    +0.000 OA
ATOM     18  H   UNL     1       9.415   0.755  -3.956  0.00  0.00    +0.000 HD
ENDBRANCH   5  17
TORSDOF 4
ENDMDL
MODEL 3
REMARK VINA RESULT:      -5.2      3.201      6.466
REMARK  Name = ox2_esm1_f8_ligand
REMARK  5 active torsions:
REMARK  status: ('A' for Active; 'I' for Inactive)
REMARK    1  A    between atoms: C_1  and  O_2
REMARK    2  A    between atoms: O_2  and  C_3
REMARK    3  A    between atoms: C_6  and  C_7
REMARK    4  A    between atoms: C_7  and  C_9
REMARK    5  A    between atoms: C_15  and  O_16
REMARK                            x       y       z     vdW  Elec       q    Type
REMARK                         _______ _______ _______ _____ _____    ______ ____
ROOT
ATOM      1  C   UNL     1       7.499  -2.730  -3.611  0.00  0.00    +0.000 A 
ATOM      2  C   UNL     1       7.186  -2.932  -2.269  0.00  0.00    +0.000 A 
ATOM      3  C   UNL     1       6.216  -2.160  -1.655  0.00  0.00    +0.000 A 
ATOM      4  C   UNL     1       5.558  -1.171  -2.365  0.00  0.00    +0.000 A 
ATOM      5  C   UNL     1       5.866  -0.963  -3.717  0.00  0.00    +0.000 A 
ATOM      6  C   UNL     1       6.839  -1.755  -4.327  0.00  0.00    +0.000 A 
ENDROOT
BRANCH   1   8
ATOM      7  C   UNL     1       9.660  -3.833  -3.575  0.00  0.00    +0.000 C 
ATOM      8  O   UNL     1       8.441  -3.469  -4.263  0.00  0.00    +0.000 OA
ENDBRANCH   1   8
BRANCH   4   9
ATOM      9  C   UNL     1       4.515  -0.322  -1.713  0.00  0.00    +0.000 C 
ATOM     10  O   UNL     1       3.347  -0.481  -1.998  0.00  0.00    +0.000 OA
BRANCH   9  11
ATOM     11  C   UNL     1       4.876   0.704  -0.712  0.00  0.00    +0.000 A 
ATOM     12  C   UNL     1       6.138   1.289  -0.746  0.00  0.00    +0.000 A 
ATOM     13  C   UNL     1       6.472   2.262   0.191  0.00  0.00    +0.000 A 
ATOM     14  C   UNL     1       5.578   2.632   1.185  0.00  0.00    +0.000 A 
ATOM     15  C   UNL     1       4.338   2.014   1.238  0.00  0.00    +0.000 A 
ATOM     16  C   UNL     1       3.985   1.054   0.291  0.00  0.00    +0.000 A 
ENDBRANCH   9  11
ENDBRANCH   4   9
BRANCH   5  17
ATOM     17  O   UNL     1       5.203   0.012  -4.413  0.00  0.00    +0.000 OA
ATOM     18  H   UNL     1       4.516   0.561  -3.961  0.00  0.00    +0.000 HD
ENDBRANCH   5  17
TORSDOF 4
ENDMDL
MODEL 4
REMARK VINA RESULT:      -4.9      1.459      2.234
REMARK  Name = ox2_esm1_f8_ligand
REMARK  5 active torsions:
REMARK  status: ('A' for Active; 'I' for Inactive)
REMARK    1  A    between atoms: C_1  and  O_2
REMARK    2  A    between atoms: O_2  and  C_3
REMARK    3  A    between atoms: C_6  and  C_7
REMARK    4  A    between atoms: C_7  and  C_9
REMARK    5  A    between atoms: C_15  and  O_16
REMARK                            x       y       z     vdW  Elec       q    Type
REMARK                         _______ _______ _______ _____ _____    ______ ____
ROOT
ATOM      1  C   UNL     1       6.394   3.517   0.945  0.00  0.00    +0.000 A 
ATOM      2  C   UNL     1       6.816   3.242  -0.354  0.00  0.00    +0.000 A 
ATOM      3  C   UNL     1       6.240   2.209  -1.071  0.00  0.00    +0.000 A 
ATOM      4  C   UNL     1       5.250   1.430  -0.499  0.00  0.00    +0.000 A 
ATOM      5  C   UNL     1       4.818   1.701   0.808  0.00  0.00    +0.000 A 
ATOM      6  C   UNL     1       5.399   2.753   1.516  0.00  0.00    +0.000 A 
ENDROOT
BRANCH   1   8
ATOM      7  C   UNL     1       6.881   5.882   1.181  0.00  0.00    +0.000 C 
ATOM      8  O   UNL     1       6.924   4.529   1.689  0.00  0.00    +0.000 OA
ENDBRANCH   1   8
BRANCH   4   9
ATOM      9  C   UNL     1       4.626   0.303  -1.256  0.00  0.00    +0.000 C 
ATOM     10  O   UNL     1       3.425   0.137  -1.203  0.00  0.00    +0.000 OA
BRANCH   9  11
ATOM     11  C   UNL     1       5.441  -0.609  -2.085  0.00  0.00    +0.000 A 
ATOM     12  C   UNL     1       5.506  -0.420  -3.461  0.00  0.00    +0.000 A 
ATOM     13  C   UNL     1       6.283  -1.275  -4.239  0.00  0.00    +0.000 A 
ATOM     14  C   UNL     1       6.965  -2.338  -3.666  0.00  0.00    +0.000 A 
ATOM     15  C   UNL     1       6.861  -2.545  -2.298  0.00  0.00    +0.000 A 
ATOM     16  C   UNL     1       6.103  -1.682  -1.507  0.00  0.00    +0.000 A 
ENDBRANCH   9  11
ENDBRANCH   4   9
BRANCH   5  17
ATOM     17  O   UNL     1       3.832   0.931   1.361  0.00  0.00    +0.000 OA
ATOM     18  H   UNL     1       3.156   1.343   1.955  0.00  0.00    +0.000 HD
ENDBRANCH   5  17
TORSDOF 4
ENDMDL
MODEL 5
REMARK VINA RESULT:      -4.9      7.282      8.540
REMARK  Name = ox2_esm1_f8_ligand
REMARK  5 active torsions:
REMARK  status: ('A' for Active; 'I' for Inactive)
REMARK    1  A    between atoms: C_1  and  O_2
REMARK    2  A    between atoms: O_2  and  C_3
REMARK    3  A    between atoms: C_6  and  C_7
REMARK    4  A    between atoms: C_7  and  C_9
REMARK    5  A    between atoms: C_15  and  O_16
REMARK                            x       y       z     vdW  Elec       q    Type
REMARK                         _______ _______ _______ _____ _____    ______ ____
ROOT
ATOM      1  C   UNL     1       2.078   1.007   6.783  0.00  0.00    +0.000 A 
ATOM      2  C   UNL     1       1.001   0.157   7.023  0.00  0.00    +0.000 A 
ATOM      3  C   UNL     1       0.753  -0.910   6.178  0.00  0.00    +0.000 A 
ATOM      4  C   UNL     1       1.564  -1.133   5.079  0.00  0.00    +0.000 A 
ATOM      5  C   UNL     1       2.652  -0.283   4.832  0.00  0.00    +0.000 A 
ATOM      6  C   UNL     1       2.897   0.783   5.698  0.00  0.00    +0.000 A 
ENDROOT
BRANCH   1   8
ATOM      7  C   UNL     1       2.642   1.838   8.992  0.00  0.00    +0.000 C 
ATOM      8  O   UNL     1       2.369   2.067   7.590  0.00  0.00    +0.000 OA
ENDBRANCH   1   8
BRANCH   4   9
ATOM      9  C   UNL     1       1.302  -2.275   4.151  0.00  0.00    +0.000 C 
ATOM     10  O   UNL     1       0.815  -2.062   3.060  0.00  0.00    +0.000 OA
BRANCH   9  11
ATOM     11  C   UNL     1       1.638  -3.663   4.528  0.00  0.00    +0.000 A 
ATOM     12  C   UNL     1       2.753  -3.913   5.322  0.00  0.00    +0.000 A 
ATOM     13  C   UNL     1       3.063  -5.221   5.685  0.00  0.00    +0.000 A 
ATOM     14  C   UNL     1       2.296  -6.286   5.236  0.00  0.00    +0.000 A 
ATOM     15  C   UNL     1       1.211  -6.033   4.410  0.00  0.00    +0.000 A 
ATOM     16  C   UNL     1       0.880  -4.724   4.058  0.00  0.00    +0.000 A 
ENDBRANCH   9  11
ENDBRANCH   4   9
BRANCH   5  17
ATOM     17  O   UNL     1       3.453  -0.518   3.748  0.00  0.00    +0.000 OA
ATOM     18  H   UNL     1       3.593   0.192   3.073  0.00  0.00    +0.000 HD
ENDBRANCH   5  17
TORSDOF 4
ENDMDL
MODEL 6
REMARK VINA RESULT:      -4.9      1.969      3.017
REMARK  Name = ox2_esm1_f8_ligand
REMARK  5 active torsions:
REMARK  status: ('A' for Active; 'I' for Inactive)
REMARK    1  A    between atoms: C_1  and  O_2
REMARK    2  A    between atoms: O_2  and  C_3
REMARK    3  A    between atoms: C_6  and  C_7
REMARK    4  A    between atoms: C_7  and  C_9
REMARK    5  A    between atoms: C_15  and  O_16
REMARK                            x       y       z     vdW  Elec       q    Type
REMARK                         _______ _______ _______ _____ _____    ______ ____
ROOT
ATOM      1  C   UNL     1       6.318   3.711   0.358  0.00  0.00    +0.000 A 
ATOM      2  C   UNL     1       6.055   2.572   1.115  0.00  0.00    +0.000 A 
ATOM      3  C   UNL     1       5.692   1.391   0.494  0.00  0.00    +0.000 A 
ATOM      4  C   UNL     1       5.572   1.334  -0.883  0.00  0.00    +0.000 A 
ATOM      5  C   UNL     1       5.837   2.477  -1.653  0.00  0.00    +0.000 A 
ATOM      6  C   UNL     1       6.213   3.659  -1.014  0.00  0.00    +0.000 A 
ENDROOT
BRANCH   1   8
ATOM      7  C   UNL     1       7.599   4.896   2.045  0.00  0.00    +0.000 C 
ATOM      8  O   UNL     1       6.688   4.897   0.922  0.00  0.00    +0.000 OA
ENDBRANCH   1   8
BRANCH   4   9
ATOM      9  C   UNL     1       5.170   0.068  -1.568  0.00  0.00    +0.000 C 
ATOM     10  O   UNL     1       4.007  -0.112  -1.861  0.00  0.00    +0.000 OA
BRANCH   9  11
ATOM     11  C   UNL     1       6.165  -0.968  -1.911  0.00  0.00    +0.000 A 
ATOM     12  C   UNL     1       7.285  -0.629  -2.664  0.00  0.00    +0.000 A 
ATOM     13  C   UNL     1       8.226  -1.605  -2.977  0.00  0.00    +0.000 A 
ATOM     14  C   UNL     1       8.047  -2.923  -2.582  0.00  0.00    +0.000 A 
ATOM     15  C   UNL     1       6.908  -3.261  -1.868  0.00  0.00    +0.000 A 
ATOM     16  C   UNL     1       5.969  -2.287  -1.530  0.00  0.00    +0.000 A 
ENDBRANCH   9  11
ENDBRANCH   4   9
BRANCH   5  17
ATOM     17  O   UNL     1       5.724   2.408  -3.014  0.00  0.00    +0.000 OA
ATOM     18  H   UNL     1       5.170   3.069  -3.499  0.00  0.00    +0.000 HD
ENDBRANCH   5  17
TORSDOF 4
ENDMDL
MODEL 7
REMARK VINA RESULT:      -4.9      3.531      6.110
REMARK  Name = ox2_esm1_f8_ligand
REMARK  5 active torsions:
REMARK  status: ('A' for Active; 'I' for Inactive)
REMARK    1  A    between atoms: C_1  and  O_2
REMARK    2  A    between atoms: O_2  and  C_3
REMARK    3  A    between atoms: C_6  and  C_7
REMARK    4  A    between atoms: C_7  and  C_9
REMARK    5  A    between atoms: C_15  and  O_16
REMARK                            x       y       z     vdW  Elec       q    Type
REMARK                         _______ _______ _______ _____ _____    ______ ____
ROOT
ATOM      1  C   UNL     1       9.035  -2.302  -3.059  0.00  0.00    +0.000 A 
ATOM      2  C   UNL     1       8.789  -0.933  -3.127  0.00  0.00    +0.000 A 
ATOM      3  C   UNL     1       7.563  -0.424  -2.737  0.00  0.00    +0.000 A 
ATOM      4  C   UNL     1       6.565  -1.273  -2.290  0.00  0.00    +0.000 A 
ATOM      5  C   UNL     1       6.806  -2.653  -2.217  0.00  0.00    +0.000 A 
ATOM      6  C   UNL     1       8.050  -3.151  -2.603  0.00  0.00    +0.000 A 
ENDROOT
BRANCH   1   8
ATOM      7  C   UNL     1      11.333  -2.835  -2.489  0.00  0.00    +0.000 C 
ATOM      8  O   UNL     1      10.229  -2.851  -3.424  0.00  0.00    +0.000 OA
ENDBRANCH   1   8
BRANCH   4   9
ATOM      9  C   UNL     1       5.232  -0.740  -1.876  0.00  0.00    +0.000 C 
ATOM     10  O   UNL     1       4.222  -1.208  -2.359  0.00  0.00    +0.000 OA
BRANCH   9  11
ATOM     11  C   UNL     1       5.115   0.340  -0.875  0.00  0.00    +0.000 A 
ATOM     12  C   UNL     1       3.856   0.772  -0.468  0.00  0.00    +0.000 A 
ATOM     13  C   UNL     1       3.748   1.783   0.483  0.00  0.00    +0.000 A 
ATOM     14  C   UNL     1       4.879   2.395   1.006  0.00  0.00    +0.000 A 
ATOM     15  C   UNL     1       6.128   1.988   0.564  0.00  0.00    +0.000 A 
ATOM     16  C   UNL     1       6.248   0.961  -0.373  0.00  0.00    +0.000 A 
ENDBRANCH   9  11
ENDBRANCH   4   9
BRANCH   5  17
ATOM     17  O   UNL     1       5.816  -3.483  -1.765  0.00  0.00    +0.000 OA
ATOM     18  H   UNL     1       5.000  -3.102  -1.356  0.00  0.00    +0.000 HD
ENDBRANCH   5  17
TORSDOF 4
ENDMDL
MODEL 8
REMARK VINA RESULT:      -4.9      3.510      6.464
REMARK  Name = ox2_esm1_f8_ligand
REMARK  5 active torsions:
REMARK  status: ('A' for Active; 'I' for Inactive)
REMARK    1  A    between atoms: C_1  and  O_2
REMARK    2  A    between atoms: O_2  and  C_3
REMARK    3  A    between atoms: C_6  and  C_7
REMARK    4  A    between atoms: C_7  and  C_9
REMARK    5  A    between atoms: C_15  and  O_16
REMARK                            x       y       z     vdW  Elec       q    Type
REMARK                         _______ _______ _______ _____ _____    ______ ____
ROOT
ATOM      1  C   UNL     1       7.079  -1.739  -5.081  0.00  0.00    +0.000 A 
ATOM      2  C   UNL     1       6.477  -0.488  -5.191  0.00  0.00    +0.000 A 
ATOM      3  C   UNL     1       5.582  -0.058  -4.228  0.00  0.00    +0.000 A 
ATOM      4  C   UNL     1       5.266  -0.872  -3.155  0.00  0.00    +0.000 A 
ATOM      5  C   UNL     1       5.870  -2.133  -3.036  0.00  0.00    +0.000 A 
ATOM      6  C   UNL     1       6.779  -2.550  -4.008  0.00  0.00    +0.000 A 
ENDROOT
BRANCH   1   8
ATOM      7  C   UNL     1       7.764  -3.504  -6.599  0.00  0.00    +0.000 C 
ATOM      8  O   UNL     1       7.974  -2.205  -5.999  0.00  0.00    +0.000 OA
ENDBRANCH   1   8
BRANCH   4   9
ATOM      9  C   UNL     1       4.293  -0.426  -2.112  0.00  0.00    +0.000 C 
ATOM     10  O   UNL     1       3.159  -0.859  -2.125  0.00  0.00    +0.000 OA
BRANCH   9  11
ATOM     11  C   UNL     1       4.686   0.523  -1.051  0.00  0.00    +0.000 A 
ATOM     12  C   UNL     1       6.024   0.871  -0.896  0.00  0.00    +0.000 A 
ATOM     13  C   UNL     1       6.391   1.774   0.097  0.00  0.00    +0.000 A 
ATOM     14  C   UNL     1       5.446   2.307   0.963  0.00  0.00    +0.000 A 
ATOM     15  C   UNL     1       4.120   1.923   0.829  0.00  0.00    +0.000 A 
ATOM     16  C   UNL     1       3.739   1.036  -0.178  0.00  0.00    +0.000 A 
ENDBRANCH   9  11
ENDBRANCH   4   9
BRANCH   5  17
ATOM     17  O   UNL     1       5.558  -2.927  -1.966  0.00  0.00    +0.000 OA
ATOM     18  H   UNL     1       5.744  -2.614  -1.047  0.00  0.00    +0.000 HD
ENDBRANCH   5  17
TORSDOF 4
ENDMDL
MODEL 9
REMARK VINA RESULT:      -4.8      8.459     10.970
REMARK  Name = ox2_esm1_f8_ligand
REMARK  5 active torsions:
REMARK  status: ('A' for Active; 'I' for Inactive)
REMARK    1  A    between atoms: C_1  and  O_2
REMARK    2  A    between atoms: O_2  and  C_3
REMARK    3  A    between atoms: C_6  and  C_7
REMARK    4  A    between atoms: C_7  and  C_9
REMARK    5  A    between atoms: C_15  and  O_16
REMARK                            x       y       z     vdW  Elec       q    Type
REMARK                         _______ _______ _______ _____ _____    ______ ____
ROOT
ATOM      1  C   UNL     1       2.272  -7.392   5.588  0.00  0.00    +0.000 A 
ATOM      2  C   UNL     1       1.896  -6.914   4.335  0.00  0.00    +0.000 A 
ATOM      3  C   UNL     1       1.366  -5.643   4.204  0.00  0.00    +0.000 A 
ATOM      4  C   UNL     1       1.191  -4.842   5.318  0.00  0.00    +0.000 A 
ATOM      5  C   UNL     1       1.569  -5.315   6.583  0.00  0.00    +0.000 A 
ATOM      6  C   UNL     1       2.112  -6.595   6.700  0.00  0.00    +0.000 A 
ENDROOT
BRANCH   1   8
ATOM      7  C   UNL     1       3.037  -9.482   4.619  0.00  0.00    +0.000 C 
ATOM      8  O   UNL     1       2.807  -8.634   5.768  0.00  0.00    +0.000 OA
ENDBRANCH   1   8
BRANCH   4   9
ATOM      9  C   UNL     1       0.609  -3.470   5.194  0.00  0.00    +0.000 C 
ATOM     10  O   UNL     1      -0.536  -3.271   5.541  0.00  0.00    +0.000 OA
BRANCH   9  11
ATOM     11  C   UNL     1       1.407  -2.343   4.670  0.00  0.00    +0.000 A 
ATOM     12  C   UNL     1       0.924  -1.592   3.603  0.00  0.00    +0.000 A 
ATOM     13  C   UNL     1       1.673  -0.524   3.117  0.00  0.00    +0.000 A 
ATOM     14  C   UNL     1       2.914  -0.218   3.656  0.00  0.00    +0.000 A 
ATOM     15  C   UNL     1       3.407  -0.997   4.691  0.00  0.00    +0.000 A 
ATOM     16  C   UNL     1       2.656  -2.057   5.200  0.00  0.00    +0.000 A 
ENDBRANCH   9  11
ENDBRANCH   4   9
BRANCH   5  17
ATOM     17  O   UNL     1       1.400  -4.512   7.678  0.00  0.00    +0.000 OA
ATOM     18  H   UNL     1       2.185  -4.231   8.211  0.00  0.00    +0.000 HD
ENDBRANCH   5  17
TORSDOF 4
ENDMDL
