REMARK  Name = ox2_shuffle_esm0_ligand
REMARK  5 active torsions:
REMARK  status: ('A' for Active; 'I' for Inactive)
REMARK    1  A    between atoms: C_1  and  O_2
REMARK    2  A    between atoms: O_2  and  C_3
REMARK    3  A    between atoms: C_6  and  C_7
REMARK    4  A    between atoms: C_7  and  C_9
REMARK    5  A    between atoms: C_15  and  O_16
REMARK                            x       y       z     vdW  Elec       q    Type
REMARK                         _______ _______ _______ _____ _____    ______ ____
ROOT
ATOM      1  C   UNL     1      -2.005   5.237   7.097  0.00  0.00    +0.000 A 
ATOM      2  C   UNL     1      -1.869   6.481   6.492  0.00  0.00    +0.000 A 
ATOM      3  C   UNL     1      -2.969   7.102   5.956  0.00  0.00    +0.000 A 
ATOM      4  C   UNL     1      -4.212   6.515   6.014  0.00  0.00    +0.000 A 
ATOM      5  C   UNL     1      -4.343   5.263   6.601  0.00  0.00    +0.000 A 
ATOM      6  C   UNL     1      -3.239   4.637   7.148  0.00  0.00    +0.000 A 
ENDROOT
BRANCH   1   8
ATOM      7  C   UNL     1       0.387   4.911   7.300  0.00  0.00    +0.000 C 
ATOM      8  O   UNL     1      -0.960   4.590   7.660  0.00  0.00    +0.000 OA
ENDBRANCH   1   8
BRANCH   4   9
ATOM      9  C   UNL     1      -5.435   7.158   5.465  0.00  0.00    +0.000 C 
ATOM     10  O   UNL     1      -6.326   6.429   5.109  0.00  0.00    +0.000 OA
BRANCH   9  11
ATOM     11  C   UNL     1      -5.670   8.613   5.384  0.00  0.00    +0.000 A 
ATOM     12  C   UNL     1      -6.918   9.070   4.963  0.00  0.00    +0.000 A 
ATOM     13  C   UNL     1      -7.188  10.418   4.894  0.00  0.00    +0.000 A 
ATOM     14  C   UNL     1      -6.223  11.343   5.237  0.00  0.00    +0.000 A 
ATOM     15  C   UNL     1      -4.987  10.900   5.667  0.00  0.00    +0.000 A 
ATOM     16  C   UNL     1      -4.726   9.543   5.745  0.00  0.00    +0.000 A 
ENDBRANCH   9  11
ENDBRANCH   4   9
BRANCH   5  17
ATOM     17  O   UNL     1      -5.571   4.680   6.629  0.00  0.00    +0.000 OA
ATOM     18  H   UNL     1      -5.686   3.788   7.043  0.00  0.00    +0.000 HD
ENDBRANCH   5  17
TORSDOF 4
