MODEL 1
REMARK VINA RESULT:      -5.1      0.000      0.000
REMARK  Name = ox2_shuffle_esm0_ligand
REMARK  5 active torsions:
REMARK  status: ('A' for Active; 'I' for Inactive)
REMARK    1  A    between atoms: C_1  and  O_2
REMARK    2  A    between atoms: O_2  and  C_3
REMARK    3  A    between atoms: C_6  and  C_7
REMARK    4  A    between atoms: C_7  and  C_9
REMARK    5  A    between atoms: C_15  and  O_16
REMARK                            x       y       z     vdW  Elec       q    Type
REMARK                         _______ _______ _______ _____ _____    ______ ____
ROOT
ATOM      1  C   UNL     1       4.067   4.647   6.236  0.00  0.00    +0.000 A 
ATOM      2  C   UNL     1       2.817   4.197   6.647  0.00  0.00    +0.000 A 
ATOM      3  C   UNL     1       2.416   2.922   6.337  0.00  0.00    +0.000 A 
ATOM      4  C   UNL     1       3.236   2.074   5.629  0.00  0.00    +0.000 A 
ATOM      5  C   UNL     1       4.476   2.531   5.202  0.00  0.00    +0.000 A 
ATOM      6  C   UNL     1       4.887   3.812   5.518  0.00  0.00    +0.000 A 
ENDROOT
BRANCH   1   8
ATOM      7  C   UNL     1       4.752   6.852   5.503  0.00  0.00    +0.000 C 
ATOM      8  O   UNL     1       4.521   5.885   6.532  0.00  0.00    +0.000 OA
ENDBRANCH   1   8
BRANCH   4   9
ATOM      9  C   UNL     1       2.853   0.679   5.286  0.00  0.00    +0.000 C 
ATOM     10  O   UNL     1       2.697   0.423   4.119  0.00  0.00    +0.000 OA
BRANCH   9  11
ATOM     11  C   UNL     1       2.715  -0.429   6.252  0.00  0.00    +0.000 A 
ATOM     12  C   UNL     1       3.737  -0.647   7.176  0.00  0.00    +0.000 A 
ATOM     13  C   UNL     1       3.639  -1.654   8.109  0.00  0.00    +0.000 A 
ATOM     14  C   UNL     1       2.528  -2.471   8.143  0.00  0.00    +0.000 A 
ATOM     15  C   UNL     1       1.505  -2.255   7.240  0.00  0.00    +0.000 A 
ATOM     16  C   UNL     1       1.604  -1.234   6.312  0.00  0.00    +0.000 A 
ENDBRANCH   9  11
ENDBRANCH   4   9
BRANCH   5  17
ATOM     17  O   UNL     1       5.268   1.694   4.479  0.00  0.00    +0.000 OA
ATOM     18  H   UNL     1       6.237   1.879   4.396  0.00  0.00    +0.000 HD
ENDBRANCH   5  17
TORSDOF 4
ENDMDL
MODEL 2
REMARK VINA RESULT:      -5.0      1.041      1.684
REMARK  Name = ox2_shuffle_esm0_ligand
REMARK  5 active torsions:
REMARK  status: ('A' for Active; 'I' for Inactive)
REMARK    1  A    between atoms: C_1  and  O_2
REMARK    2  A    between atoms: O_2  and  C_3
REMARK    3  A    between atoms: C_6  and  C_7
REMARK    4  A    between atoms: C_7  and  C_9
REMARK    5  A    between atoms: C_15  and  O_16
REMARK                            x       y       z     vdW  Elec       q    Type
REMARK                         _______ _______ _______ _____ _____    ______ ____
ROOT
ATOM      1  C   UNL     1       4.654   4.037   5.765  0.00  0.00    +0.000 A 
ATOM      2  C   UNL     1       5.284   2.980   5.118  0.00  0.00    +0.000 A 
ATOM      3  C   UNL     1       4.626   1.786   4.963  0.00  0.00    +0.000 A 
ATOM      4  C   UNL     1       3.343   1.618   5.433  0.00  0.00    +0.000 A 
ATOM      5  C   UNL     1       2.722   2.668   6.097  0.00  0.00    +0.000 A 
ATOM      6  C   UNL     1       3.379   3.875   6.250  0.00  0.00    +0.000 A 
ENDROOT
BRANCH   1   8
ATOM      7  C   UNL     1       4.577   6.449   5.552  0.00  0.00    +0.000 C 
ATOM      8  O   UNL     1       5.247   5.241   5.927  0.00  0.00    +0.000 OA
ENDBRANCH   1   8
BRANCH   4   9
ATOM      9  C   UNL     1       2.584   0.351   5.271  0.00  0.00    +0.000 C 
ATOM     10  O   UNL     1       2.048   0.163   4.208  0.00  0.00    +0.000 OA
BRANCH   9  11
ATOM     11  C   UNL     1       2.490  -0.722   6.281  0.00  0.00    +0.000 A 
ATOM     12  C   UNL     1       3.511  -0.851   7.221  0.00  0.00    +0.000 A 
ATOM     13  C   UNL     1       3.454  -1.823   8.195  0.00  0.00    +0.000 A 
ATOM     14  C   UNL     1       2.384  -2.692   8.253  0.00  0.00    +0.000 A 
ATOM     15  C   UNL     1       1.361  -2.564   7.333  0.00  0.00    +0.000 A 
ATOM     16  C   UNL     1       1.419  -1.577   6.365  0.00  0.00    +0.000 A 
ENDBRANCH   9  11
ENDBRANCH   4   9
BRANCH   5  17
ATOM     17  O   UNL     1       1.465   2.483   6.581  0.00  0.00    +0.000 OA
ATOM     18  H   UNL     1       0.753   3.139   6.374  0.00  0.00    +0.000 HD
ENDBRANCH   5  17
TORSDOF 4
ENDMDL
MODEL 3
REMARK VINA RESULT:      -5.0      2.621      4.161
REMARK  Name = ox2_shuffle_esm0_ligand
REMARK  5 active torsions:
REMARK  status: ('A' for Active; 'I' for Inactive)
REMARK    1  A    between atoms: C_1  and  O_2
REMARK    2  A    between atoms: O_2  and  C_3
REMARK    3  A    between atoms: C_6  and  C_7
REMARK    4  A    between atoms: C_7  and  C_9
REMARK    5  A    between atoms: C_15  and  O_16
REMARK                            x       y       z     vdW  Elec       q    Type
REMARK                         _______ _______ _______ _____ _____    ______ ____
ROOT
ATOM      1  C   UNL     1       3.983   0.971   5.231  0.00  0.00    +0.000 A 
ATOM      2  C   UNL     1       2.755   0.684   4.646  0.00  0.00    +0.000 A 
ATOM      3  C   UNL     1       1.913  -0.222   5.240  0.00  0.00    +0.000 A 
ATOM      4  C   UNL     1       2.261  -0.850   6.413  0.00  0.00    +0.000 A 
ATOM      5  C   UNL     1       3.497  -0.578   6.985  0.00  0.00    +0.000 A 
ATOM      6  C   UNL     1       4.346   0.339   6.395  0.00  0.00    +0.000 A 
ENDROOT
BRANCH   1   8
ATOM      7  C   UNL     1       4.849   3.231   5.142  0.00  0.00    +0.000 C 
ATOM      8  O   UNL     1       4.842   1.870   4.701  0.00  0.00    +0.000 OA
ENDBRANCH   1   8
BRANCH   4   9
ATOM      9  C   UNL     1       1.374  -1.824   7.103  0.00  0.00    +0.000 C 
ATOM     10  O   UNL     1       1.832  -2.913   7.338  0.00  0.00    +0.000 OA
BRANCH   9  11
ATOM     11  C   UNL     1       0.006  -1.541   7.579  0.00  0.00    +0.000 A 
ATOM     12  C   UNL     1      -0.996  -2.481   7.342  0.00  0.00    +0.000 A 
ATOM     13  C   UNL     1      -2.281  -2.269   7.788  0.00  0.00    +0.000 A 
ATOM     14  C   UNL     1      -2.601  -1.116   8.476  0.00  0.00    +0.000 A 
ATOM     15  C   UNL     1      -1.612  -0.184   8.727  0.00  0.00    +0.000 A 
ATOM     16  C   UNL     1      -0.320  -0.409   8.285  0.00  0.00    +0.000 A 
ENDBRANCH   9  11
ENDBRANCH   4   9
BRANCH   5  17
ATOM     17  O   UNL     1       3.844  -1.224   8.131  0.00  0.00    +0.000 OA
ATOM     18  H   UNL     1       4.646  -1.803   8.149  0.00  0.00    +0.000 HD
ENDBRANCH   5  17
TORSDOF 4
ENDMDL
MODEL 4
REMARK VINA RESULT:      -4.9      3.552      6.998
REMARK  Name = ox2_shuffle_esm0_ligand
REMARK  5 active torsions:
REMARK  status: ('A' for Active; 'I' for Inactive)
REMARK    1  A    between atoms: C_1  and  O_2
REMARK    2  A    between atoms: O_2  and  C_3
REMARK    3  A    between atoms: C_6  and  C_7
REMARK    4  A    between atoms: C_7  and  C_9
REMARK    5  A    between atoms: C_15  and  O_16
REMARK                            x       y       z     vdW  Elec       q    Type
REMARK                         _______ _______ _______ _____ _____    ______ ____
ROOT
ATOM      1  C   UNL     1      -2.151  -2.636   7.486  0.00  0.00    +0.000 A 
ATOM      2  C   UNL     1      -1.325  -3.325   6.605  0.00  0.00    +0.000 A 
ATOM      3  C   UNL     1       0.019  -3.050   6.575  0.00  0.00    +0.000 A 
ATOM      4  C   UNL     1       0.567  -2.105   7.412  0.00  0.00    +0.000 A 
ATOM      5  C   UNL     1      -0.262  -1.404   8.277  0.00  0.00    +0.000 A 
ATOM      6  C   UNL     1      -1.615  -1.682   8.315  0.00  0.00    +0.000 A 
ENDROOT
BRANCH   1   8
ATOM      7  C   UNL     1      -4.433  -1.980   7.005  0.00  0.00    +0.000 C 
ATOM      8  O   UNL     1      -3.478  -2.881   7.572  0.00  0.00    +0.000 OA
ENDBRANCH   1   8
BRANCH   4   9
ATOM      9  C   UNL     1       2.020  -1.788   7.429  0.00  0.00    +0.000 C 
ATOM     10  O   UNL     1       2.716  -2.444   8.161  0.00  0.00    +0.000 OA
BRANCH   9  11
ATOM     11  C   UNL     1       2.683  -0.783   6.575  0.00  0.00    +0.000 A 
ATOM     12  C   UNL     1       2.002  -0.292   5.462  0.00  0.00    +0.000 A 
ATOM     13  C   UNL     1       2.574   0.662   4.651  0.00  0.00    +0.000 A 
ATOM     14  C   UNL     1       3.837   1.147   4.925  0.00  0.00    +0.000 A 
ATOM     15  C   UNL     1       4.514   0.676   6.033  0.00  0.00    +0.000 A 
ATOM     16  C   UNL     1       3.929  -0.275   6.850  0.00  0.00    +0.000 A 
ENDBRANCH   9  11
ENDBRANCH   4   9
BRANCH   5  17
ATOM     17  O   UNL     1       0.286  -0.454   9.080  0.00  0.00    +0.000 OA
ATOM     18  H   UNL     1      -0.288   0.247   9.481  0.00  0.00    +0.000 HD
ENDBRANCH   5  17
TORSDOF 4
ENDMDL
MODEL 5
REMARK VINA RESULT:      -4.9      3.023      4.717
REMARK  Name = ox2_shuffle_esm0_ligand
REMARK  5 active torsions:
REMARK  status: ('A' for Active; 'I' for Inactive)
REMARK    1  A    between atoms: C_1  and  O_2
REMARK    2  A    between atoms: O_2  and  C_3
REMARK    3  A    between atoms: C_6  and  C_7
REMARK    4  A    between atoms: C_7  and  C_9
REMARK    5  A    between atoms: C_15  and  O_16
REMARK                            x       y       z     vdW  Elec       q    Type
REMARK                         _______ _______ _______ _____ _____    ______ ____
ROOT
ATOM      1  C   UNL     1      -0.860   2.362   7.777  0.00  0.00    +0.000 A 
ATOM      2  C   UNL     1      -0.309   3.071   6.716  0.00  0.00    +0.000 A 
ATOM      3  C   UNL     1       0.705   2.514   5.977  0.00  0.00    +0.000 A 
ATOM      4  C   UNL     1       1.183   1.257   6.266  0.00  0.00    +0.000 A 
ATOM      5  C   UNL     1       0.646   0.558   7.339  0.00  0.00    +0.000 A 
ATOM      6  C   UNL     1      -0.380   1.112   8.081  0.00  0.00    +0.000 A 
ENDROOT
BRANCH   1   8
ATOM      7  C   UNL     1      -2.559   4.050   8.142  0.00  0.00    +0.000 C 
ATOM      8  O   UNL     1      -1.874   2.853   8.524  0.00  0.00    +0.000 OA
ENDBRANCH   1   8
BRANCH   4   9
ATOM      9  C   UNL     1       2.266   0.605   5.483  0.00  0.00    +0.000 C 
ATOM     10  O   UNL     1       1.930  -0.129   4.587  0.00  0.00    +0.000 OA
BRANCH   9  11
ATOM     11  C   UNL     1       3.711   0.836   5.670  0.00  0.00    +0.000 A 
ATOM     12  C   UNL     1       4.381   0.130   6.669  0.00  0.00    +0.000 A 
ATOM     13  C   UNL     1       5.733   0.298   6.864  0.00  0.00    +0.000 A 
ATOM     14  C   UNL     1       6.450   1.174   6.075  0.00  0.00    +0.000 A 
ATOM     15  C   UNL     1       5.798   1.869   5.075  0.00  0.00    +0.000 A 
ATOM     16  C   UNL     1       4.440   1.687   4.876  0.00  0.00    +0.000 A 
ENDBRANCH   9  11
ENDBRANCH   4   9
BRANCH   5  17
ATOM     17  O   UNL     1       1.144  -0.673   7.633  0.00  0.00    +0.000 OA
ATOM     18  H   UNL     1       1.219  -0.964   8.576  0.00  0.00    +0.000 HD
ENDBRANCH   5  17
TORSDOF 4
ENDMDL
MODEL 6
REMARK VINA RESULT:      -4.9      1.694      2.494
REMARK  Name = ox2_shuffle_esm0_ligand
REMARK  5 active torsions:
REMARK  status: ('A' for Active; 'I' for Inactive)
REMARK    1  A    between atoms: C_1  and  O_2
REMARK    2  A    between atoms: O_2  and  C_3
REMARK    3  A    between atoms: C_6  and  C_7
REMARK    4  A    between atoms: C_7  and  C_9
REMARK    5  A    between atoms: C_15  and  O_16
REMARK                            x       y       z     vdW  Elec       q    Type
REMARK                         _______ _______ _______ _____ _____    ______ ____
ROOT
ATOM      1  C   UNL     1       5.042   6.043   6.530  0.00  0.00    +0.000 A 
ATOM      2  C   UNL     1       4.206   5.637   5.496  0.00  0.00    +0.000 A 
ATOM      3  C   UNL     1       4.237   4.335   5.066  0.00  0.00    +0.000 A 
ATOM      4  C   UNL     1       5.080   3.416   5.648  0.00  0.00    +0.000 A 
ATOM      5  C   UNL     1       5.928   3.828   6.668  0.00  0.00    +0.000 A 
ATOM      6  C   UNL     1       5.896   5.137   7.109  0.00  0.00    +0.000 A 
ENDROOT
BRANCH   1   8
ATOM      7  C   UNL     1       4.837   8.425   6.136  0.00  0.00    +0.000 C 
ATOM      8  O   UNL     1       5.038   7.308   7.008  0.00  0.00    +0.000 OA
ENDBRANCH   1   8
BRANCH   4   9
ATOM      9  C   UNL     1       5.134   1.991   5.230  0.00  0.00    +0.000 C 
ATOM     10  O   UNL     1       6.162   1.602   4.736  0.00  0.00    +0.000 OA
BRANCH   9  11
ATOM     11  C   UNL     1       4.057   1.001   5.432  0.00  0.00    +0.000 A 
ATOM     12  C   UNL     1       4.106   0.174   6.553  0.00  0.00    +0.000 A 
ATOM     13  C   UNL     1       3.112  -0.747   6.792  0.00  0.00    +0.000 A 
ATOM     14  C   UNL     1       2.049  -0.871   5.921  0.00  0.00    +0.000 A 
ATOM     15  C   UNL     1       1.985  -0.048   4.813  0.00  0.00    +0.000 A 
ATOM     16  C   UNL     1       2.982   0.884   4.585  0.00  0.00    +0.000 A 
ENDBRANCH   9  11
ENDBRANCH   4   9
BRANCH   5  17
ATOM     17  O   UNL     1       6.776   2.918   7.219  0.00  0.00    +0.000 OA
ATOM     18  H   UNL     1       7.565   2.605   6.709  0.00  0.00    +0.000 HD
ENDBRANCH   5  17
TORSDOF 4
ENDMDL
MODEL 7
REMARK VINA RESULT:      -4.8      1.713      2.121
REMARK  Name = ox2_shuffle_esm0_ligand
REMARK  5 active torsions:
REMARK  status: ('A' for Active; 'I' for Inactive)
REMARK    1  A    between atoms: C_1  and  O_2
REMARK    2  A    between atoms: O_2  and  C_3
REMARK    3  A    between atoms: C_6  and  C_7
REMARK    4  A    between atoms: C_7  and  C_9
REMARK    5  A    between atoms: C_15  and  O_16
REMARK                            x       y       z     vdW  Elec       q    Type
REMARK                         _______ _______ _______ _____ _____    ______ ____
ROOT
ATOM      1  C   UNL     1       1.202   4.376   6.826  0.00  0.00    +0.000 A 
ATOM      2  C   UNL     1       0.168   3.489   6.551  0.00  0.00    +0.000 A 
ATOM      3  C   UNL     1       0.456   2.224   6.105  0.00  0.00    +0.000 A 
ATOM      4  C   UNL     1       1.758   1.813   5.932  0.00  0.00    +0.000 A 
ATOM      5  C   UNL     1       2.789   2.707   6.188  0.00  0.00    +0.000 A 
ATOM      6  C   UNL     1       2.504   3.980   6.643  0.00  0.00    +0.000 A 
ENDROOT
BRANCH   1   8
ATOM      7  C   UNL     1       0.227   6.573   6.519  0.00  0.00    +0.000 C 
ATOM      8  O   UNL     1       0.976   5.627   7.287  0.00  0.00    +0.000 OA
ENDBRANCH   1   8
BRANCH   4   9
ATOM      9  C   UNL     1       2.119   0.447   5.470  0.00  0.00    +0.000 C 
ATOM     10  O   UNL     1       2.521   0.338   4.340  0.00  0.00    +0.000 OA
BRANCH   9  11
ATOM     11  C   UNL     1       2.087  -0.771   6.304  0.00  0.00    +0.000 A 
ATOM     12  C   UNL     1       3.066  -0.942   7.281  0.00  0.00    +0.000 A 
ATOM     13  C   UNL     1       3.062  -2.052   8.096  0.00  0.00    +0.000 A 
ATOM     14  C   UNL     1       2.087  -3.019   7.955  0.00  0.00    +0.000 A 
ATOM     15  C   UNL     1       1.105  -2.852   6.998  0.00  0.00    +0.000 A 
ATOM     16  C   UNL     1       1.109  -1.729   6.190  0.00  0.00    +0.000 A 
ENDBRANCH   9  11
ENDBRANCH   4   9
BRANCH   5  17
ATOM     17  O   UNL     1       4.071   2.300   5.987  0.00  0.00    +0.000 OA
ATOM     18  H   UNL     1       4.718   2.316   6.737  0.00  0.00    +0.000 HD
ENDBRANCH   5  17
TORSDOF 4
ENDMDL
MODEL 8
REMARK VINA RESULT:      -4.8      1.911      6.000
REMARK  Name = ox2_shuffle_esm0_ligand
REMARK  5 active torsions:
REMARK  status: ('A' for Active; 'I' for Inactive)
REMARK    1  A    between atoms: C_1  and  O_2
REMARK    2  A    between atoms: O_2  and  C_3
REMARK    3  A    between atoms: C_6  and  C_7
REMARK    4  A    between atoms: C_7  and  C_9
REMARK    5  A    between atoms: C_15  and  O_16
REMARK                            x       y       z     vdW  Elec       q    Type
REMARK                         _______ _______ _______ _____ _____    ______ ____
ROOT
ATOM      1  C   UNL     1       2.225  -0.762   6.105  0.00  0.00    +0.000 A 
ATOM      2  C   UNL     1       2.159   0.100   5.016  0.00  0.00    +0.000 A 
ATOM      3  C   UNL     1       3.188   0.976   4.777  0.00  0.00    +0.000 A 
ATOM      4  C   UNL     1       4.292   1.011   5.596  0.00  0.00    +0.000 A 
ATOM      5  C   UNL     1       4.348   0.164   6.695  0.00  0.00    +0.000 A 
ATOM      6  C   UNL     1       3.318  -0.725   6.936  0.00  0.00    +0.000 A 
ENDROOT
BRANCH   1   8
ATOM      7  C   UNL     1       1.422  -2.648   7.395  0.00  0.00    +0.000 C 
ATOM      8  O   UNL     1       1.251  -1.660   6.375  0.00  0.00    +0.000 OA
ENDBRANCH   1   8
BRANCH   4   9
ATOM      9  C   UNL     1       5.439   1.929   5.365  0.00  0.00    +0.000 C 
ATOM     10  O   UNL     1       6.426   1.458   4.858  0.00  0.00    +0.000 OA
BRANCH   9  11
ATOM     11  C   UNL     1       5.441   3.378   5.645  0.00  0.00    +0.000 A 
ATOM     12  C   UNL     1       6.587   3.956   6.189  0.00  0.00    +0.000 A 
ATOM     13  C   UNL     1       6.640   5.308   6.445  0.00  0.00    +0.000 A 
ATOM     14  C   UNL     1       5.555   6.115   6.171  0.00  0.00    +0.000 A 
ATOM     15  C   UNL     1       4.419   5.554   5.620  0.00  0.00    +0.000 A 
ATOM     16  C   UNL     1       4.376   4.196   5.355  0.00  0.00    +0.000 A 
ENDBRANCH   9  11
ENDBRANCH   4   9
BRANCH   5  17
ATOM     17  O   UNL     1       5.432   0.226   7.513  0.00  0.00    +0.000 OA
ATOM     18  H   UNL     1       5.609   1.046   8.040  0.00  0.00    +0.000 HD
ENDBRANCH   5  17
TORSDOF 4
ENDMDL
MODEL 9
REMARK VINA RESULT:      -4.7      2.833      6.178
REMARK  Name = ox2_shuffle_esm0_ligand
REMARK  5 active torsions:
REMARK  status: ('A' for Active; 'I' for Inactive)
REMARK    1  A    between atoms: C_1  and  O_2
REMARK    2  A    between atoms: O_2  and  C_3
REMARK    3  A    between atoms: C_6  and  C_7
REMARK    4  A    between atoms: C_7  and  C_9
REMARK    5  A    between atoms: C_15  and  O_16
REMARK                            x       y       z     vdW  Elec       q    Type
REMARK                         _______ _______ _______ _____ _____    ______ ____
ROOT
ATOM      1  C   UNL     1      -0.284  -2.387   7.832  0.00  0.00    +0.000 A 
ATOM      2  C   UNL     1       0.414  -2.844   6.720  0.00  0.00    +0.000 A 
ATOM      3  C   UNL     1       1.198  -1.976   6.003  0.00  0.00    +0.000 A 
ATOM      4  C   UNL     1       1.311  -0.655   6.371  0.00  0.00    +0.000 A 
ATOM      5  C   UNL     1       0.597  -0.195   7.470  0.00  0.00    +0.000 A 
ATOM      6  C   UNL     1      -0.188  -1.067   8.199  0.00  0.00    +0.000 A 
ENDROOT
BRANCH   1   8
ATOM      7  C   UNL     1      -1.607  -2.754   9.827  0.00  0.00    +0.000 C 
ATOM      8  O   UNL     1      -1.053  -3.202   8.587  0.00  0.00    +0.000 OA
ENDBRANCH   1   8
BRANCH   4   9
ATOM      9  C   UNL     1       2.163   0.318   5.637  0.00  0.00    +0.000 C 
ATOM     10  O   UNL     1       1.614   1.037   4.841  0.00  0.00    +0.000 OA
BRANCH   9  11
ATOM     11  C   UNL     1       3.609   0.517   5.852  0.00  0.00    +0.000 A 
ATOM     12  C   UNL     1       4.303   1.377   5.003  0.00  0.00    +0.000 A 
ATOM     13  C   UNL     1       5.648   1.610   5.181  0.00  0.00    +0.000 A 
ATOM     14  C   UNL     1       6.336   0.989   6.204  0.00  0.00    +0.000 A 
ATOM     15  C   UNL     1       5.654   0.143   7.058  0.00  0.00    +0.000 A 
ATOM     16  C   UNL     1       4.300  -0.077   6.881  0.00  0.00    +0.000 A 
ENDBRANCH   9  11
ENDBRANCH   4   9
BRANCH   5  17
ATOM     17  O   UNL     1       0.695   1.119   7.809  0.00  0.00    +0.000 OA
ATOM     18  H   UNL     1       1.567   1.582   7.745  0.00  0.00    +0.000 HD
ENDBRANCH   5  17
TORSDOF 4
ENDMDL
