REMARK  Name = bgox31_4_ligand
REMARK  5 active torsions:
REMARK  status: ('A' for Active; 'I' for Inactive)
REMARK    1  A    between atoms: C_1  and  O_2
REMARK    2  A    between atoms: O_2  and  C_3
REMARK    3  A    between atoms: C_6  and  C_7
REMARK    4  A    between atoms: C_7  and  C_9
REMARK    5  A    between atoms: C_15  and  O_16
REMARK                            x       y       z     vdW  Elec       q    Type
REMARK                         _______ _______ _______ _____ _____    ______ ____
ROOT
ATOM      1  C   UNL     1       2.755  -3.961   9.097  0.00  0.00    +0.000 A 
ATOM      2  C   UNL     1       2.196  -4.813   8.184  0.00  0.00    +0.000 A 
ATOM      3  C   UNL     1       2.838  -6.056   7.838  0.00  0.00    +0.000 A 
ATOM      4  C   UNL     1       4.080  -6.316   8.435  0.00  0.00    +0.000 A 
ATOM      5  C   UNL     1       4.615  -5.445   9.375  0.00  0.00    +0.000 A 
ATOM      6  C   UNL     1       3.973  -4.241   9.721  0.00  0.00    +0.000 A 
ENDROOT
BRANCH   1   8
ATOM      7  C   UNL     1       2.818  -1.876  10.259  0.00  0.00    +0.000 C 
ATOM      8  O   UNL     1       2.087  -2.805   9.415  0.00  0.00    +0.000 OA
ENDBRANCH   1   8
BRANCH   4   9
ATOM      9  C   UNL     1       4.743  -7.574   8.048  0.00  0.00    +0.000 C 
ATOM     10  O   UNL     1       4.151  -8.654   8.380  0.00  0.00    +0.000 OA
BRANCH   9  11
ATOM     11  C   UNL     1       5.874  -7.664   7.121  0.00  0.00    +0.000 A 
ATOM     12  C   UNL     1       6.220  -8.944   6.669  0.00  0.00    +0.000 A 
ATOM     13  C   UNL     1       7.358  -9.094   5.846  0.00  0.00    +0.000 A 
ATOM     14  C   UNL     1       8.149  -8.019   5.587  0.00  0.00    +0.000 A 
ATOM     15  C   UNL     1       7.861  -6.756   6.075  0.00  0.00    +0.000 A 
ATOM     16  C   UNL     1       6.722  -6.564   6.882  0.00  0.00    +0.000 A 
ENDBRANCH   9  11
ENDBRANCH   4   9
BRANCH   5  17
ATOM     17  O   UNL     1       5.852  -5.779   9.952  0.00  0.00    +0.000 OA
ATOM     18  H   UNL     1       6.263  -5.180  10.625  0.00  0.00    +0.000 HD
ENDBRANCH   5  17
TORSDOF 4
