MODEL 1
REMARK VINA RESULT:      -4.6      0.000      0.000
REMARK  Name = bgox31_4_ligand
REMARK  5 active torsions:
REMARK  status: ('A' for Active; 'I' for Inactive)
REMARK    1  A    between atoms: C_1  and  O_2
REMARK    2  A    between atoms: O_2  and  C_3
REMARK    3  A    between atoms: C_6  and  C_7
REMARK    4  A    between atoms: C_7  and  C_9
REMARK    5  A    between atoms: C_15  and  O_16
REMARK                            x       y       z     vdW  Elec       q    Type
REMARK                         _______ _______ _______ _____ _____    ______ ____
ROOT
ATOM      1  C   UNL     1       4.162  -4.222   6.341  0.00  0.00    +0.000 A 
ATOM      2  C   UNL     1       3.648  -3.235   5.545  0.00  0.00    +0.000 A 
ATOM      3  C   UNL     1       2.921  -2.127   6.112  0.00  0.00    +0.000 A 
ATOM      4  C   UNL     1       2.720  -2.144   7.499  0.00  0.00    +0.000 A 
ATOM      5  C   UNL     1       3.271  -3.146   8.287  0.00  0.00    +0.000 A 
ATOM      6  C   UNL     1       3.995  -4.216   7.728  0.00  0.00    +0.000 A 
ENDROOT
BRANCH   1   8
ATOM      7  C   UNL     1       6.307  -5.018   5.657  0.00  0.00    +0.000 C 
ATOM      8  O   UNL     1       4.874  -5.238   5.755  0.00  0.00    +0.000 OA
ENDBRANCH   1   8
BRANCH   4   9
ATOM      9  C   UNL     1       1.946  -1.024   8.063  0.00  0.00    +0.000 C 
ATOM     10  O   UNL     1       0.837  -1.321   8.618  0.00  0.00    +0.000 OA
BRANCH   9  11
ATOM     11  C   UNL     1       2.465   0.335   8.243  0.00  0.00    +0.000 A 
ATOM     12  C   UNL     1       1.530   1.378   8.208  0.00  0.00    +0.000 A 
ATOM     13  C   UNL     1       1.990   2.711   8.286  0.00  0.00    +0.000 A 
ATOM     14  C   UNL     1       3.326   2.964   8.296  0.00  0.00    +0.000 A 
ATOM     15  C   UNL     1       4.269   1.951   8.268  0.00  0.00    +0.000 A 
ATOM     16  C   UNL     1       3.847   0.607   8.211  0.00  0.00    +0.000 A 
ENDBRANCH   9  11
ENDBRANCH   4   9
BRANCH   5  17
ATOM     17  O   UNL     1       3.050  -3.088   9.674  0.00  0.00    +0.000 OA
ATOM     18  H   UNL     1       3.699  -2.623  10.260  0.00  0.00    +0.000 HD
ENDBRANCH   5  17
TORSDOF 4
ENDMDL
MODEL 2
REMARK VINA RESULT:      -4.5      3.223      4.616
REMARK  Name = bgox31_4_ligand
REMARK  5 active torsions:
REMARK  status: ('A' for Active; 'I' for Inactive)
REMARK    1  A    between atoms: C_1  and  O_2
REMARK    2  A    between atoms: O_2  and  C_3
REMARK    3  A    between atoms: C_6  and  C_7
REMARK    4  A    between atoms: C_7  and  C_9
REMARK    5  A    between atoms: C_15  and  O_16
REMARK                            x       y       z     vdW  Elec       q    Type
REMARK                         _______ _______ _______ _____ _____    ______ ____
ROOT
ATOM      1  C   UNL     1       0.913  -1.845  10.598  0.00  0.00    +0.000 A 
ATOM      2  C   UNL     1       1.504  -0.806  11.264  0.00  0.00    +0.000 A 
ATOM      3  C   UNL     1       2.167   0.255  10.548  0.00  0.00    +0.000 A 
ATOM      4  C   UNL     1       2.224   0.138   9.152  0.00  0.00    +0.000 A 
ATOM      5  C   UNL     1       1.597  -0.915   8.498  0.00  0.00    +0.000 A 
ATOM      6  C   UNL     1       0.937  -1.938   9.204  0.00  0.00    +0.000 A 
ENDROOT
BRANCH   1   8
ATOM      7  C   UNL     1      -0.614  -3.680  10.564  0.00  0.00    +0.000 C 
ATOM      8  O   UNL     1       0.268  -2.813  11.325  0.00  0.00    +0.000 OA
ENDBRANCH   1   8
BRANCH   4   9
ATOM      9  C   UNL     1       2.933   1.211   8.432  0.00  0.00    +0.000 C 
ATOM     10  O   UNL     1       4.114   0.943   8.032  0.00  0.00    +0.000 OA
BRANCH   9  11
ATOM     11  C   UNL     1       2.301   2.440   7.945  0.00  0.00    +0.000 A 
ATOM     12  C   UNL     1       3.157   3.461   7.511  0.00  0.00    +0.000 A 
ATOM     13  C   UNL     1       2.601   4.698   7.117  0.00  0.00    +0.000 A 
ATOM     14  C   UNL     1       1.266   4.912   7.257  0.00  0.00    +0.000 A 
ATOM     15  C   UNL     1       0.409   3.939   7.743  0.00  0.00    +0.000 A 
ATOM     16  C   UNL     1       0.925   2.685   8.125  0.00  0.00    +0.000 A 
ENDBRANCH   9  11
ENDBRANCH   4   9
BRANCH   5  17
ATOM     17  O   UNL     1       1.673  -0.957   7.096  0.00  0.00    +0.000 OA
ATOM     18  H   UNL     1       0.889  -1.248   6.565  0.00  0.00    +0.000 HD
ENDBRANCH   5  17
TORSDOF 4
ENDMDL
MODEL 3
REMARK VINA RESULT:      -4.5      1.643      2.796
REMARK  Name = bgox31_4_ligand
REMARK  5 active torsions:
REMARK  status: ('A' for Active; 'I' for Inactive)
REMARK    1  A    between atoms: C_1  and  O_2
REMARK    2  A    between atoms: O_2  and  C_3
REMARK    3  A    between atoms: C_6  and  C_7
REMARK    4  A    between atoms: C_7  and  C_9
REMARK    5  A    between atoms: C_15  and  O_16
REMARK                            x       y       z     vdW  Elec       q    Type
REMARK                         _______ _______ _______ _____ _____    ______ ____
ROOT
ATOM      1  C   UNL     1       4.220  -1.986   7.055  0.00  0.00    +0.000 A 
ATOM      2  C   UNL     1       4.978  -1.007   7.639  0.00  0.00    +0.000 A 
ATOM      3  C   UNL     1       4.361   0.109   8.309  0.00  0.00    +0.000 A 
ATOM      4  C   UNL     1       2.960   0.170   8.281  0.00  0.00    +0.000 A 
ATOM      5  C   UNL     1       2.214  -0.847   7.701  0.00  0.00    +0.000 A 
ATOM      6  C   UNL     1       2.824  -1.944   7.064  0.00  0.00    +0.000 A 
ENDROOT
BRANCH   1   8
ATOM      7  C   UNL     1       4.329  -4.357   6.790  0.00  0.00    +0.000 C 
ATOM      8  O   UNL     1       4.857  -3.045   6.458  0.00  0.00    +0.000 OA
ENDBRANCH   1   8
BRANCH   4   9
ATOM      9  C   UNL     1       2.341   1.334   8.940  0.00  0.00    +0.000 C 
ATOM     10  O   UNL     1       2.211   1.267  10.207  0.00  0.00    +0.000 OA
BRANCH   9  11
ATOM     11  C   UNL     1       2.100   2.624   8.289  0.00  0.00    +0.000 A 
ATOM     12  C   UNL     1       0.766   2.957   8.021  0.00  0.00    +0.000 A 
ATOM     13  C   UNL     1       0.487   4.147   7.314  0.00  0.00    +0.000 A 
ATOM     14  C   UNL     1       1.510   4.896   6.824  0.00  0.00    +0.000 A 
ATOM     15  C   UNL     1       2.836   4.553   7.023  0.00  0.00    +0.000 A 
ATOM     16  C   UNL     1       3.154   3.384   7.742  0.00  0.00    +0.000 A 
ENDBRANCH   9  11
ENDBRANCH   4   9
BRANCH   5  17
ATOM     17  O   UNL     1       0.814  -0.735   7.730  0.00  0.00    +0.000 OA
ATOM     18  H   UNL     1       0.260  -1.276   7.114  0.00  0.00    +0.000 HD
ENDBRANCH   5  17
TORSDOF 4
ENDMDL
MODEL 4
REMARK VINA RESULT:      -4.2      1.649      5.872
REMARK  Name = bgox31_4_ligand
REMARK  5 active torsions:
REMARK  status: ('A' for Active; 'I' for Inactive)
REMARK    1  A    between atoms: C_1  and  O_2
REMARK    2  A    between atoms: O_2  and  C_3
REMARK    3  A    between atoms: C_6  and  C_7
REMARK    4  A    between atoms: C_7  and  C_9
REMARK    5  A    between atoms: C_15  and  O_16
REMARK                            x       y       z     vdW  Elec       q    Type
REMARK                         _______ _______ _______ _____ _____    ______ ____
ROOT
ATOM      1  C   UNL     1       2.959   2.437   7.902  0.00  0.00    +0.000 A 
ATOM      2  C   UNL     1       4.191   1.903   8.162  0.00  0.00    +0.000 A 
ATOM      3  C   UNL     1       4.345   0.502   8.463  0.00  0.00    +0.000 A 
ATOM      4  C   UNL     1       3.173  -0.264   8.532  0.00  0.00    +0.000 A 
ATOM      5  C   UNL     1       1.936   0.297   8.243  0.00  0.00    +0.000 A 
ATOM      6  C   UNL     1       1.796   1.663   7.932  0.00  0.00    +0.000 A 
ENDROOT
BRANCH   1   8
ATOM      7  C   UNL     1       3.915   4.274   6.714  0.00  0.00    +0.000 C 
ATOM      8  O   UNL     1       2.871   3.770   7.589  0.00  0.00    +0.000 OA
ENDBRANCH   1   8
BRANCH   4   9
ATOM      9  C   UNL     1       3.339  -1.688   8.874  0.00  0.00    +0.000 C 
ATOM     10  O   UNL     1       2.963  -2.041  10.041  0.00  0.00    +0.000 OA
BRANCH   9  11
ATOM     11  C   UNL     1       3.667  -2.740   7.908  0.00  0.00    +0.000 A 
ATOM     12  C   UNL     1       4.508  -3.768   8.354  0.00  0.00    +0.000 A 
ATOM     13  C   UNL     1       4.926  -4.756   7.436  0.00  0.00    +0.000 A 
ATOM     14  C   UNL     1       4.590  -4.642   6.124  0.00  0.00    +0.000 A 
ATOM     15  C   UNL     1       3.811  -3.601   5.649  0.00  0.00    +0.000 A 
ATOM     16  C   UNL     1       3.358  -2.608   6.539  0.00  0.00    +0.000 A 
ENDBRANCH   9  11
ENDBRANCH   4   9
BRANCH   5  17
ATOM     17  O   UNL     1       0.805  -0.533   8.308  0.00  0.00    +0.000 OA
ATOM     18  H   UNL     1      -0.083  -0.147   8.517  0.00  0.00    +0.000 HD
ENDBRANCH   5  17
TORSDOF 4
ENDMDL
MODEL 5
REMARK VINA RESULT:      -4.1      2.052      5.966
REMARK  Name = bgox31_4_ligand
REMARK  5 active torsions:
REMARK  status: ('A' for Active; 'I' for Inactive)
REMARK    1  A    between atoms: C_1  and  O_2
REMARK    2  A    between atoms: O_2  and  C_3
REMARK    3  A    between atoms: C_6  and  C_7
REMARK    4  A    between atoms: C_7  and  C_9
REMARK    5  A    between atoms: C_15  and  O_16
REMARK                            x       y       z     vdW  Elec       q    Type
REMARK                         _______ _______ _______ _____ _____    ______ ____
ROOT
ATOM      1  C   UNL     1       2.462   2.557   9.806  0.00  0.00    +0.000 A 
ATOM      2  C   UNL     1       1.904   2.239   8.598  0.00  0.00    +0.000 A 
ATOM      3  C   UNL     1       1.620   0.870   8.249  0.00  0.00    +0.000 A 
ATOM      4  C   UNL     1       1.996  -0.113   9.176  0.00  0.00    +0.000 A 
ATOM      5  C   UNL     1       2.541   0.238  10.404  0.00  0.00    +0.000 A 
ATOM      6  C   UNL     1       2.799   1.579  10.746  0.00  0.00    +0.000 A 
ENDROOT
BRANCH   1   8
ATOM      7  C   UNL     1       1.968   4.831   9.271  0.00  0.00    +0.000 C 
ATOM      8  O   UNL     1       2.682   3.878  10.103  0.00  0.00    +0.000 OA
ENDBRANCH   1   8
BRANCH   4   9
ATOM      9  C   UNL     1       1.732  -1.511   8.793  0.00  0.00    +0.000 C 
ATOM     10  O   UNL     1       0.540  -1.932   8.964  0.00  0.00    +0.000 OA
BRANCH   9  11
ATOM     11  C   UNL     1       2.656  -2.348   8.023  0.00  0.00    +0.000 A 
ATOM     12  C   UNL     1       2.797  -2.047   6.662  0.00  0.00    +0.000 A 
ATOM     13  C   UNL     1       3.605  -2.880   5.858  0.00  0.00    +0.000 A 
ATOM     14  C   UNL     1       4.151  -4.006   6.389  0.00  0.00    +0.000 A 
ATOM     15  C   UNL     1       3.974  -4.357   7.716  0.00  0.00    +0.000 A 
ATOM     16  C   UNL     1       3.191  -3.539   8.555  0.00  0.00    +0.000 A 
ENDBRANCH   9  11
ENDBRANCH   4   9
BRANCH   5  17
ATOM     17  O   UNL     1       2.873  -0.796  11.296  0.00  0.00    +0.000 OA
ATOM     18  H   UNL     1       3.823  -1.009  11.477  0.00  0.00    +0.000 HD
ENDBRANCH   5  17
TORSDOF 4
ENDMDL
MODEL 6
REMARK VINA RESULT:      -4.1      2.723      4.097
REMARK  Name = bgox31_4_ligand
REMARK  5 active torsions:
REMARK  status: ('A' for Active; 'I' for Inactive)
REMARK    1  A    between atoms: C_1  and  O_2
REMARK    2  A    between atoms: O_2  and  C_3
REMARK    3  A    between atoms: C_6  and  C_7
REMARK    4  A    between atoms: C_7  and  C_9
REMARK    5  A    between atoms: C_15  and  O_16
REMARK                            x       y       z     vdW  Elec       q    Type
REMARK                         _______ _______ _______ _____ _____    ______ ____
ROOT
ATOM      1  C   UNL     1       3.985  -3.750   6.699  0.00  0.00    +0.000 A 
ATOM      2  C   UNL     1       4.155  -4.025   8.028  0.00  0.00    +0.000 A 
ATOM      3  C   UNL     1       3.489  -3.244   9.039  0.00  0.00    +0.000 A 
ATOM      4  C   UNL     1       2.712  -2.163   8.597  0.00  0.00    +0.000 A 
ATOM      5  C   UNL     1       2.538  -1.919   7.241  0.00  0.00    +0.000 A 
ATOM      6  C   UNL     1       3.178  -2.698   6.258  0.00  0.00    +0.000 A 
ENDROOT
BRANCH   1   8
ATOM      7  C   UNL     1       6.042  -4.311   5.625  0.00  0.00    +0.000 C 
ATOM      8  O   UNL     1       4.617  -4.545   5.775  0.00  0.00    +0.000 OA
ENDBRANCH   1   8
BRANCH   4   9
ATOM      9  C   UNL     1       2.063  -1.351   9.641  0.00  0.00    +0.000 C 
ATOM     10  O   UNL     1       2.339  -0.106   9.647  0.00  0.00    +0.000 OA
BRANCH   9  11
ATOM     11  C   UNL     1       0.965  -1.818  10.491  0.00  0.00    +0.000 A 
ATOM     12  C   UNL     1       0.929  -1.327  11.803  0.00  0.00    +0.000 A 
ATOM     13  C   UNL     1      -0.057  -1.816  12.689  0.00  0.00    +0.000 A 
ATOM     14  C   UNL     1      -0.886  -2.816  12.289  0.00  0.00    +0.000 A 
ATOM     15  C   UNL     1      -0.828  -3.360  11.017  0.00  0.00    +0.000 A 
ATOM     16  C   UNL     1       0.129  -2.883  10.099  0.00  0.00    +0.000 A 
ENDBRANCH   9  11
ENDBRANCH   4   9
BRANCH   5  17
ATOM     17  O   UNL     1       1.727  -0.834   6.867  0.00  0.00    +0.000 OA
ATOM     18  H   UNL     1       1.063  -0.469   7.504  0.00  0.00    +0.000 HD
ENDBRANCH   5  17
TORSDOF 4
ENDMDL
MODEL 7
REMARK VINA RESULT:      -4.1      2.634      6.445
REMARK  Name = bgox31_4_ligand
REMARK  5 active torsions:
REMARK  status: ('A' for Active; 'I' for Inactive)
REMARK    1  A    between atoms: C_1  and  O_2
REMARK    2  A    between atoms: O_2  and  C_3
REMARK    3  A    between atoms: C_6  and  C_7
REMARK    4  A    between atoms: C_7  and  C_9
REMARK    5  A    between atoms: C_15  and  O_16
REMARK                            x       y       z     vdW  Elec       q    Type
REMARK                         _______ _______ _______ _____ _____    ______ ____
ROOT
ATOM      1  C   UNL     1       2.207   1.913   9.544  0.00  0.00    +0.000 A 
ATOM      2  C   UNL     1       2.796   1.187  10.543  0.00  0.00    +0.000 A 
ATOM      3  C   UNL     1       3.010  -0.232  10.403  0.00  0.00    +0.000 A 
ATOM      4  C   UNL     1       2.534  -0.831   9.228  0.00  0.00    +0.000 A 
ATOM      5  C   UNL     1       1.959  -0.068   8.221  0.00  0.00    +0.000 A 
ATOM      6  C   UNL     1       1.770   1.320   8.357  0.00  0.00    +0.000 A 
ENDROOT
BRANCH   1   8
ATOM      7  C   UNL     1       1.428   3.967   8.608  0.00  0.00    +0.000 C 
ATOM      8  O   UNL     1       2.057   3.267   9.715  0.00  0.00    +0.000 OA
ENDBRANCH   1   8
BRANCH   4   9
ATOM      9  C   UNL     1       2.727  -2.288   9.111  0.00  0.00    +0.000 C 
ATOM     10  O   UNL     1       3.896  -2.682   8.786  0.00  0.00    +0.000 OA
BRANCH   9  11
ATOM     11  C   UNL     1       1.763  -3.291   9.569  0.00  0.00    +0.000 A 
ATOM     12  C   UNL     1       2.087  -4.633   9.331  0.00  0.00    +0.000 A 
ATOM     13  C   UNL     1       1.150  -5.634   9.671  0.00  0.00    +0.000 A 
ATOM     14  C   UNL     1      -0.079  -5.278  10.130  0.00  0.00    +0.000 A 
ATOM     15  C   UNL     1      -0.444  -3.955  10.314  0.00  0.00    +0.000 A 
ATOM     16  C   UNL     1       0.472  -2.930  10.005  0.00  0.00    +0.000 A 
ENDBRANCH   9  11
ENDBRANCH   4   9
BRANCH   5  17
ATOM     17  O   UNL     1       1.526  -0.730   7.059  0.00  0.00    +0.000 OA
ATOM     18  H   UNL     1       2.188  -1.061   6.401  0.00  0.00    +0.000 HD
ENDBRANCH   5  17
TORSDOF 4
ENDMDL
MODEL 8
REMARK VINA RESULT:      -4.1      2.436      6.233
REMARK  Name = bgox31_4_ligand
REMARK  5 active torsions:
REMARK  status: ('A' for Active; 'I' for Inactive)
REMARK    1  A    between atoms: C_1  and  O_2
REMARK    2  A    between atoms: O_2  and  C_3
REMARK    3  A    between atoms: C_6  and  C_7
REMARK    4  A    between atoms: C_7  and  C_9
REMARK    5  A    between atoms: C_15  and  O_16
REMARK                            x       y       z     vdW  Elec       q    Type
REMARK                         _______ _______ _______ _____ _____    ______ ____
ROOT
ATOM      1  C   UNL     1       2.240   3.191   7.791  0.00  0.00    +0.000 A 
ATOM      2  C   UNL     1       1.519   2.119   8.242  0.00  0.00    +0.000 A 
ATOM      3  C   UNL     1       2.159   0.860   8.527  0.00  0.00    +0.000 A 
ATOM      4  C   UNL     1       3.534   0.774   8.264  0.00  0.00    +0.000 A 
ATOM      5  C   UNL     1       4.247   1.883   7.828  0.00  0.00    +0.000 A 
ATOM      6  C   UNL     1       3.617   3.115   7.568  0.00  0.00    +0.000 A 
ENDROOT
BRANCH   1   8
ATOM      7  C   UNL     1       0.149   4.271   7.387  0.00  0.00    +0.000 C 
ATOM      8  O   UNL     1       1.587   4.377   7.565  0.00  0.00    +0.000 OA
ENDBRANCH   1   8
BRANCH   4   9
ATOM      9  C   UNL     1       4.172  -0.528   8.528  0.00  0.00    +0.000 C 
ATOM     10  O   UNL     1       4.427  -0.800   9.747  0.00  0.00    +0.000 OA
BRANCH   9  11
ATOM     11  C   UNL     1       4.302  -1.602   7.539  0.00  0.00    +0.000 A 
ATOM     12  C   UNL     1       3.238  -2.509   7.448  0.00  0.00    +0.000 A 
ATOM     13  C   UNL     1       3.354  -3.613   6.575  0.00  0.00    +0.000 A 
ATOM     14  C   UNL     1       4.524  -3.832   5.917  0.00  0.00    +0.000 A 
ATOM     15  C   UNL     1       5.610  -2.984   6.041  0.00  0.00    +0.000 A 
ATOM     16  C   UNL     1       5.524  -1.860   6.886  0.00  0.00    +0.000 A 
ENDBRANCH   9  11
ENDBRANCH   4   9
BRANCH   5  17
ATOM     17  O   UNL     1       5.627   1.733   7.608  0.00  0.00    +0.000 OA
ATOM     18  H   UNL     1       5.951   1.188   6.847  0.00  0.00    +0.000 HD
ENDBRANCH   5  17
TORSDOF 4
ENDMDL
MODEL 9
REMARK VINA RESULT:      -4.1      2.614      4.153
REMARK  Name = bgox31_4_ligand
REMARK  5 active torsions:
REMARK  status: ('A' for Active; 'I' for Inactive)
REMARK    1  A    between atoms: C_1  and  O_2
REMARK    2  A    between atoms: O_2  and  C_3
REMARK    3  A    between atoms: C_6  and  C_7
REMARK    4  A    between atoms: C_7  and  C_9
REMARK    5  A    between atoms: C_15  and  O_16
REMARK                            x       y       z     vdW  Elec       q    Type
REMARK                         _______ _______ _______ _____ _____    ______ ____
ROOT
ATOM      1  C   UNL     1       6.994  -2.411   6.167  0.00  0.00    +0.000 A 
ATOM      2  C   UNL     1       6.628  -1.440   7.059  0.00  0.00    +0.000 A 
ATOM      3  C   UNL     1       5.251  -1.273   7.451  0.00  0.00    +0.000 A 
ATOM      4  C   UNL     1       4.310  -2.108   6.833  0.00  0.00    +0.000 A 
ATOM      5  C   UNL     1       4.710  -3.100   5.948  0.00  0.00    +0.000 A 
ATOM      6  C   UNL     1       6.059  -3.270   5.583  0.00  0.00    +0.000 A 
ENDROOT
BRANCH   1   8
ATOM      7  C   UNL     1       8.787  -3.918   5.702  0.00  0.00    +0.000 C 
ATOM      8  O   UNL     1       8.322  -2.550   5.852  0.00  0.00    +0.000 OA
ENDBRANCH   1   8
BRANCH   4   9
ATOM      9  C   UNL     1       2.901  -1.905   7.216  0.00  0.00    +0.000 C 
ATOM     10  O   UNL     1       2.115  -1.500   6.297  0.00  0.00    +0.000 OA
BRANCH   9  11
ATOM     11  C   UNL     1       2.312  -2.358   8.479  0.00  0.00    +0.000 A 
ATOM     12  C   UNL     1       2.683  -3.632   8.928  0.00  0.00    +0.000 A 
ATOM     13  C   UNL     1       2.074  -4.152  10.091  0.00  0.00    +0.000 A 
ATOM     14  C   UNL     1       1.076  -3.456  10.697  0.00  0.00    +0.000 A 
ATOM     15  C   UNL     1       0.649  -2.223  10.235  0.00  0.00    +0.000 A 
ATOM     16  C   UNL     1       1.248  -1.663   9.089  0.00  0.00    +0.000 A 
ENDBRANCH   9  11
ENDBRANCH   4   9
BRANCH   5  17
ATOM     17  O   UNL     1       3.716  -3.918   5.384  0.00  0.00    +0.000 OA
ATOM     18  H   UNL     1       2.895  -3.513   5.007  0.00  0.00    +0.000 HD
ENDBRANCH   5  17
TORSDOF 4
ENDMDL
