REMARK  Name = ox3_orig_f8_ligand
REMARK  5 active torsions:
REMARK  status: ('A' for Active; 'I' for Inactive)
REMARK    1  A    between atoms: C_1  and  O_2
REMARK    2  A    between atoms: O_2  and  C_3
REMARK    3  A    between atoms: C_6  and  C_7
REMARK    4  A    between atoms: C_7  and  C_9
REMARK    5  A    between atoms: C_15  and  O_16
REMARK                            x       y       z     vdW  Elec       q    Type
REMARK                         _______ _______ _______ _____ _____    ______ ____
ROOT
ATOM      1  C   UNL     1     -11.632  11.245  -1.344  0.00  0.00    +0.000 A 
ATOM      2  C   UNL     1     -11.682  11.892  -0.108  0.00  0.00    +0.000 A 
ATOM      3  C   UNL     1     -10.575  11.881   0.726  0.00  0.00    +0.000 A 
ATOM      4  C   UNL     1      -9.407  11.232   0.339  0.00  0.00    +0.000 A 
ATOM      5  C   UNL     1      -9.371  10.581  -0.894  0.00  0.00    +0.000 A 
ATOM      6  C   UNL     1     -10.486  10.594  -1.723  0.00  0.00    +0.000 A 
ENDROOT
BRANCH   1   8
ATOM      7  C   UNL     1     -13.950  11.792  -1.817  0.00  0.00    +0.000 C 
ATOM      8  O   UNL     1     -12.698  11.228  -2.209  0.00  0.00    +0.000 OA
ENDBRANCH   1   8
BRANCH   4   9
ATOM      9  C   UNL     1      -8.203  11.204   1.237  0.00  0.00    +0.000 C 
ATOM     10  O   UNL     1      -7.253  10.538   0.898  0.00  0.00    +0.000 OA
BRANCH   9  11
ATOM     11  C   UNL     1      -8.154  11.929   2.530  0.00  0.00    +0.000 A 
ATOM     12  C   UNL     1      -8.514  13.266   2.626  0.00  0.00    +0.000 A 
ATOM     13  C   UNL     1      -8.424  13.924   3.839  0.00  0.00    +0.000 A 
ATOM     14  C   UNL     1      -8.027  13.256   4.980  0.00  0.00    +0.000 A 
ATOM     15  C   UNL     1      -7.651  11.926   4.892  0.00  0.00    +0.000 A 
ATOM     16  C   UNL     1      -7.693  11.262   3.665  0.00  0.00    +0.000 A 
ENDBRANCH   9  11
ENDBRANCH   4   9
BRANCH   5  17
ATOM     17  O   UNL     1      -8.239   9.922  -1.271  0.00  0.00    +0.000 OA
ATOM     18  H   UNL     1      -8.205   9.457  -2.144  0.00  0.00    +0.000 HD
ENDBRANCH   5  17
TORSDOF 4
