REMARK  Name = /Users/cafierom/python_mac/peptidebuilder/runs/oxybenzone/dock/ox3_orig_f8_rf3cof/ox3_orig_f8_rf3cof_protein.pdb
REMARK                            x       y       z     vdW  Elec       q    Type
REMARK                         _______ _______ _______ _____ _____    ______ ____
ATOM      1  N   ASP A   1      -3.264  -7.973  -3.996  0.00  0.00    +0.000 NA
ATOM      2  CA  ASP A   1      -2.907  -6.560  -3.957  0.00  0.00    +0.000 C 
ATOM      3  C   ASP A   1      -4.053  -5.636  -3.638  0.00  0.00    +0.000 C 
ATOM      4  O   ASP A   1      -3.873  -4.433  -3.462  0.00  0.00    +0.000 OA
ATOM      5  CB  ASP A   1      -2.249  -6.148  -5.260  0.00  0.00    +0.000 C 
ATOM      6  CG  ASP A   1      -3.140  -6.231  -6.481  0.00  0.00    +0.000 C 
ATOM      7  OD1 ASP A   1      -4.368  -6.426  -6.345  0.00  0.00    +0.000 OA
ATOM      8  OD2 ASP A   1      -2.615  -6.110  -7.591  0.00  0.00    +0.000 OA
ATOM      9  N   GLY A   2      -5.256  -6.163  -3.576  0.00  0.00    +0.000 N 
ATOM     10  CA  GLY A   2      -6.429  -5.446  -3.080  0.00  0.00    +0.000 C 
ATOM     11  C   GLY A   2      -7.154  -4.503  -4.020  0.00  0.00    +0.000 C 
ATOM     12  O   GLY A   2      -8.327  -4.195  -3.806  0.00  0.00    +0.000 OA
ATOM     13  N   GLY A   3      -6.547  -4.010  -5.034  0.00  0.00    +0.000 N 
ATOM     14  CA  GLY A   3      -7.211  -3.144  -5.995  0.00  0.00    +0.000 C 
ATOM     15  C   GLY A   3      -6.830  -1.673  -5.892  0.00  0.00    +0.000 C 
ATOM     16  O   GLY A   3      -5.849  -1.289  -5.271  0.00  0.00    +0.000 OA
ATOM     17  N   GLU A   4      -7.670  -0.840  -6.515  0.00  0.00    +0.000 N 
ATOM     18  CA  GLU A   4      -7.377   0.568  -6.655  0.00  0.00    +0.000 C 
ATOM     19  C   GLU A   4      -7.574   1.357  -5.371  0.00  0.00    +0.000 C 
ATOM     20  O   GLU A   4      -8.474   1.092  -4.594  0.00  0.00    +0.000 OA
ATOM     21  CB  GLU A   4      -8.283   1.176  -7.728  0.00  0.00    +0.000 C 
ATOM     22  CG  GLU A   4      -8.021   0.650  -9.120  0.00  0.00    +0.000 C 
ATOM     23  CD  GLU A   4      -6.658   0.991  -9.667  0.00  0.00    +0.000 C 
ATOM     24  OE1 GLU A   4      -6.117   2.046  -9.288  0.00  0.00    +0.000 OA
ATOM     25  OE2 GLU A   4      -6.130   0.209 -10.448  0.00  0.00    +0.000 OA
ATOM     26  N   GLY A   5      -6.741   2.326  -5.211  0.00  0.00    +0.000 N 
ATOM     27  CA  GLY A   5      -6.858   3.249  -4.071  0.00  0.00    +0.000 C 
ATOM     28  C   GLY A   5      -7.673   4.480  -4.410  0.00  0.00    +0.000 C 
ATOM     29  O   GLY A   5      -8.418   4.514  -5.377  0.00  0.00    +0.000 OA
ATOM     30  N   GLY A   6      -7.484   5.522  -3.623  0.00  0.00    +0.000 N 
ATOM     31  CA  GLY A   6      -8.293   6.711  -3.738  0.00  0.00    +0.000 C 
ATOM     32  C   GLY A   6      -7.813   7.701  -4.773  0.00  0.00    +0.000 C 
ATOM     33  O   GLY A   6      -7.286   7.305  -5.806  0.00  0.00    +0.000 OA
ATOM     34  N   ILE A   7      -8.014   8.984  -4.461  0.00  0.00    +0.000 N 
ATOM     35  CA  ILE A   7      -7.635  10.015  -5.409  0.00  0.00    +0.000 C 
ATOM     36  C   ILE A   7      -6.172   9.929  -5.745  0.00  0.00    +0.000 C 
ATOM     37  O   ILE A   7      -5.299   9.839  -4.899  0.00  0.00    +0.000 OA
ATOM     38  CB  ILE A   7      -7.952  11.382  -4.799  0.00  0.00    +0.000 C 
ATOM     39  CG1 ILE A   7      -9.446  11.517  -4.594  0.00  0.00    +0.000 C 
ATOM     40  CG2 ILE A   7      -7.434  12.502  -5.692  0.00  0.00    +0.000 C 
ATOM     41  CD1 ILE A   7      -9.853  12.737  -3.782  0.00  0.00    +0.000 C 
ATOM     42  N   GLY A   8      -5.889   9.953  -7.049  0.00  0.00    +0.000 N 
ATOM     43  CA  GLY A   8      -4.511   9.874  -7.503  0.00  0.00    +0.000 C 
ATOM     44  C   GLY A   8      -4.118   8.458  -7.842  0.00  0.00    +0.000 C 
ATOM     45  O   GLY A   8      -3.002   8.240  -8.294  0.00  0.00    +0.000 OA
ATOM     46  N   GLY A   9      -4.982   7.479  -7.665  0.00  0.00    +0.000 N 
ATOM     47  CA  GLY A   9      -4.702   6.118  -8.018  0.00  0.00    +0.000 C 
ATOM     48  C   GLY A   9      -3.963   5.370  -6.931  0.00  0.00    +0.000 C 
ATOM     49  O   GLY A   9      -3.892   5.783  -5.782  0.00  0.00    +0.000 OA
ATOM     50  N   GLY A  10      -3.409   4.227  -7.323  0.00  0.00    +0.000 N 
ATOM     51  CA  GLY A  10      -2.650   3.410  -6.389  0.00  0.00    +0.000 C 
ATOM     52  C   GLY A  10      -3.433   2.183  -6.004  0.00  0.00    +0.000 C 
ATOM     53  O   GLY A  10      -4.639   2.101  -6.157  0.00  0.00    +0.000 OA
ATOM     54  N   SER A  11      -2.730   1.214  -5.475  0.00  0.00    +0.000 N 
ATOM     55  CA  SER A  11      -3.347  -0.023  -5.072  0.00  0.00    +0.000 C 
ATOM     56  C   SER A  11      -3.844   0.054  -3.651  0.00  0.00    +0.000 C 
ATOM     57  O   SER A  11      -3.237   0.702  -2.793  0.00  0.00    +0.000 OA
ATOM     58  CB  SER A  11      -2.354  -1.166  -5.195  0.00  0.00    +0.000 C 
ATOM     59  OG  SER A  11      -2.011  -1.384  -6.543  0.00  0.00    +0.000 OA
ATOM     60  N   GLY A  12      -4.939  -0.649  -3.408  0.00  0.00    +0.000 N 
ATOM     61  CA  GLY A  12      -5.469  -0.752  -2.061  0.00  0.00    +0.000 C 
ATOM     62  C   GLY A  12      -5.379  -2.175  -1.569  0.00  0.00    +0.000 C 
ATOM     63  O   GLY A  12      -5.029  -3.091  -2.315  0.00  0.00    +0.000 OA
ATOM     64  N   GLY A  13      -5.755  -2.353  -0.336  0.00  0.00    +0.000 N 
ATOM     65  CA  GLY A  13      -5.751  -3.671   0.244  0.00  0.00    +0.000 C 
ATOM     66  C   GLY A  13      -4.914  -3.687   1.511  0.00  0.00    +0.000 C 
ATOM     67  O   GLY A  13      -4.268  -2.724   1.862  0.00  0.00    +0.000 OA
ATOM     68  N   TRP A  14      -4.920  -4.799   2.162  0.00  0.00    +0.000 N 
ATOM     69  CA  TRP A  14      -4.200  -4.966   3.400  0.00  0.00    +0.000 C 
ATOM     70  C   TRP A  14      -2.710  -4.705   3.187  0.00  0.00    +0.000 C 
ATOM     71  O   TRP A  14      -2.095  -5.281   2.289  0.00  0.00    +0.000 OA
ATOM     72  CB  TRP A  14      -4.397  -6.370   3.951  0.00  0.00    +0.000 C 
ATOM     73  CG  TRP A  14      -3.825  -6.494   5.316  0.00  0.00    +0.000 C 
ATOM     74  CD1 TRP A  14      -2.644  -7.066   5.641  0.00  0.00    +0.000 C 
ATOM     75  CD2 TRP A  14      -4.428  -6.122   6.543  0.00  0.00    +0.000 C 
ATOM     76  NE1 TRP A  14      -2.441  -6.999   7.010  0.00  0.00    +0.000 NA
ATOM     77  CE2 TRP A  14      -3.544  -6.425   7.590  0.00  0.00    +0.000 C 
ATOM     78  CE3 TRP A  14      -5.647  -5.472   6.846  0.00  0.00    +0.000 C 
ATOM     79  CZ2 TRP A  14      -3.826  -6.171   8.925  0.00  0.00    +0.000 C 
ATOM     80  CZ3 TRP A  14      -5.922  -5.205   8.181  0.00  0.00    +0.000 C 
ATOM     81  CH2 TRP A  14      -5.048  -5.546   9.185  0.00  0.00    +0.000 C 
ATOM     82  N   GLY A  15      -2.145  -3.838   3.940  0.00  0.00    +0.000 N 
ATOM     83  CA  GLY A  15      -0.754  -3.462   3.784  0.00  0.00    +0.000 C 
ATOM     84  C   GLY A  15      -0.543  -2.309   2.848  0.00  0.00    +0.000 C 
ATOM     85  O   GLY A  15       0.525  -1.668   2.869  0.00  0.00    +0.000 OA
ATOM     86  N   ASP A  16      -1.519  -1.987   2.010  0.00  0.00    +0.000 N 
ATOM     87  CA  ASP A  16      -1.453  -0.872   1.098  0.00  0.00    +0.000 C 
ATOM     88  C   ASP A  16      -2.521   0.160   1.435  0.00  0.00    +0.000 C 
ATOM     89  O   ASP A  16      -2.773   1.052   0.652  0.00  0.00    +0.000 OA
ATOM     90  CB  ASP A  16      -1.733  -1.324  -0.348  0.00  0.00    +0.000 C 
ATOM     91  CG  ASP A  16      -0.645  -2.176  -0.917  0.00  0.00    +0.000 C 
ATOM     92  OD1 ASP A  16       0.530  -1.944  -0.616  0.00  0.00    +0.000 OA
ATOM     93  OD2 ASP A  16      -0.982  -3.087  -1.695  0.00  0.00    +0.000 OA
ATOM     94  N   GLY A  17      -3.169   0.048   2.574  0.00  0.00    +0.000 N 
ATOM     95  CA  GLY A  17      -4.433   0.719   2.866  0.00  0.00    +0.000 C 
ATOM     96  C   GLY A  17      -4.486   2.201   2.663  0.00  0.00    +0.000 C 
ATOM     97  O   GLY A  17      -5.527   2.736   2.298  0.00  0.00    +0.000 OA
ATOM     98  N   PHE A  18      -3.399   2.933   2.859  0.00  0.00    +0.000 N 
ATOM     99  CA  PHE A  18      -3.428   4.377   2.724  0.00  0.00    +0.000 C 
ATOM    100  C   PHE A  18      -2.790   4.898   1.434  0.00  0.00    +0.000 C 
ATOM    101  O   PHE A  18      -2.819   6.075   1.193  0.00  0.00    +0.000 OA
ATOM    102  CB  PHE A  18      -2.792   5.040   3.941  0.00  0.00    +0.000 C 
ATOM    103  CG  PHE A  18      -3.613   4.827   5.166  0.00  0.00    +0.000 A 
ATOM    104  CD1 PHE A  18      -4.752   5.575   5.402  0.00  0.00    +0.000 A 
ATOM    105  CD2 PHE A  18      -3.261   3.833   6.068  0.00  0.00    +0.000 A 
ATOM    106  CE1 PHE A  18      -5.542   5.358   6.524  0.00  0.00    +0.000 A 
ATOM    107  CE2 PHE A  18      -4.066   3.615   7.195  0.00  0.00    +0.000 A 
ATOM    108  CZ  PHE A  18      -5.182   4.348   7.420  0.00  0.00    +0.000 A 
ATOM    109  N   GLY A  19      -2.276   4.037   0.613  0.00  0.00    +0.000 N 
ATOM    110  CA  GLY A  19      -1.725   4.507  -0.661  0.00  0.00    +0.000 C 
ATOM    111  C   GLY A  19      -2.830   4.981  -1.570  0.00  0.00    +0.000 C 
ATOM    112  O   GLY A  19      -3.749   4.255  -1.898  0.00  0.00    +0.000 OA
ATOM    113  N   GLY A  20      -2.797   6.226  -1.958  0.00  0.00    +0.000 N 
ATOM    114  CA  GLY A  20      -3.813   6.842  -2.801  0.00  0.00    +0.000 C 
ATOM    115  C   GLY A  20      -5.017   7.388  -2.072  0.00  0.00    +0.000 C 
ATOM    116  O   GLY A  20      -5.894   8.005  -2.696  0.00  0.00    +0.000 OA
ATOM    117  N   GLY A  21      -5.139   7.171  -0.800  0.00  0.00    +0.000 N 
ATOM    118  CA  GLY A  21      -6.248   7.720  -0.029  0.00  0.00    +0.000 C 
ATOM    119  C   GLY A  21      -7.222   6.685   0.472  0.00  0.00    +0.000 C 
ATOM    120  O   GLY A  21      -6.830   5.535   0.769  0.00  0.00    +0.000 OA
ATOM    121  N   LEU A  22      -8.460   7.098   0.561  0.00  0.00    +0.000 N 
ATOM    122  CA  LEU A  22      -9.490   6.251   1.189  0.00  0.00    +0.000 C 
ATOM    123  C   LEU A  22      -9.841   4.998   0.427  0.00  0.00    +0.000 C 
ATOM    124  O   LEU A  22     -10.591   4.150   0.952  0.00  0.00    +0.000 OA
ATOM    125  CB  LEU A  22     -10.750   7.072   1.436  0.00  0.00    +0.000 C 
ATOM    126  CG  LEU A  22     -10.622   8.179   2.477  0.00  0.00    +0.000 C 
ATOM    127  CD1 LEU A  22     -11.912   8.928   2.537  0.00  0.00    +0.000 C 
ATOM    128  CD2 LEU A  22     -10.265   7.589   3.841  0.00  0.00    +0.000 C 
ATOM    129  N   GLY A  23      -9.403   4.848  -0.798  0.00  0.00    +0.000 N 
ATOM    130  CA  GLY A  23      -9.742   3.666  -1.574  0.00  0.00    +0.000 C 
ATOM    131  C   GLY A  23      -9.096   2.368  -1.095  0.00  0.00    +0.000 C 
ATOM    132  O   GLY A  23      -9.528   1.289  -1.546  0.00  0.00    +0.000 OA
ATOM    133  N   GLY A  24      -8.148   2.469  -0.217  0.00  0.00    +0.000 N 
ATOM    134  CA  GLY A  24      -7.474   1.247   0.258  0.00  0.00    +0.000 C 
ATOM    135  C   GLY A  24      -7.980   0.779   1.600  0.00  0.00    +0.000 C 
ATOM    136  O   GLY A  24      -8.844   1.383   2.222  0.00  0.00    +0.000 OA
ATOM    137  N   TYR A  25      -7.399  -0.327   2.024  0.00  0.00    +0.000 N 
ATOM    138  CA  TYR A  25      -7.733  -0.884   3.319  0.00  0.00    +0.000 C 
ATOM    139  C   TYR A  25      -6.472  -1.499   3.844  0.00  0.00    +0.000 C 
ATOM    140  O   TYR A  25      -5.791  -2.250   3.143  0.00  0.00    +0.000 OA
ATOM    141  CB  TYR A  25      -8.832  -1.959   3.197  0.00  0.00    +0.000 C 
ATOM    142  CG  TYR A  25      -9.219  -2.530   4.541  0.00  0.00    +0.000 A 
ATOM    143  CD1 TYR A  25     -10.086  -1.839   5.371  0.00  0.00    +0.000 A 
ATOM    144  CD2 TYR A  25      -8.650  -3.745   4.951  0.00  0.00    +0.000 A 
ATOM    145  CE1 TYR A  25     -10.408  -2.362   6.601  0.00  0.00    +0.000 A 
ATOM    146  CE2 TYR A  25      -8.997  -4.258   6.205  0.00  0.00    +0.000 A 
ATOM    147  CZ  TYR A  25      -9.879  -3.561   7.046  0.00  0.00    +0.000 A 
ATOM    148  OH  TYR A  25     -10.202  -4.072   8.249  0.00  0.00    +0.000 OA
ATOM    149  N   GLY A  26      -6.156  -1.182   5.082  0.00  0.00    +0.000 N 
ATOM    150  CA  GLY A  26      -4.923  -1.751   5.639  0.00  0.00    +0.000 C 
ATOM    151  C   GLY A  26      -4.784  -1.388   7.095  0.00  0.00    +0.000 C 
ATOM    152  O   GLY A  26      -5.722  -0.901   7.721  0.00  0.00    +0.000 OA
ATOM    153  N   SER A  27      -3.609  -1.652   7.614  0.00  0.00    +0.000 N 
ATOM    154  CA  SER A  27      -3.372  -1.379   9.054  0.00  0.00    +0.000 C 
ATOM    155  C   SER A  27      -3.191   0.084   9.340  0.00  0.00    +0.000 C 
ATOM    156  O   SER A  27      -3.305   0.511  10.470  0.00  0.00    +0.000 OA
ATOM    157  CB  SER A  27      -2.158  -2.165   9.514  0.00  0.00    +0.000 C 
ATOM    158  OG  SER A  27      -1.006  -1.757   8.821  0.00  0.00    +0.000 OA
ATOM    159  H   ASP A   1      -2.436  -8.527  -4.217  0.00  0.00    +0.000 HD
ATOM    160  H   ASP A   1      -3.975  -8.124  -4.711  0.00  0.00    +0.000 HD
ATOM    161  H   ASP A   1      -4.736  -6.514  -5.488  0.00  0.00    +0.000 HD
ATOM    162  H   GLY A   2      -5.373  -7.092  -3.881  0.00  0.00    +0.000 HD
ATOM    163  H   GLY A   3      -5.596  -4.225  -5.168  0.00  0.00    +0.000 HD
ATOM    164  H   GLU A   4      -8.509  -1.195  -6.888  0.00  0.00    +0.000 HD
ATOM    165  H   GLU A   4      -6.563   2.612  -8.689  0.00  0.00    +0.000 HD
ATOM    166  H   GLY A   5      -6.014   2.451  -5.862  0.00  0.00    +0.000 HD
ATOM    167  H   GLY A   6      -6.774   5.487  -2.941  0.00  0.00    +0.000 HD
ATOM    168  H   ILE A   7      -8.416   9.228  -3.596  0.00  0.00    +0.000 HD
ATOM    169  H   GLY A   8      -6.618  10.025  -7.707  0.00  0.00    +0.000 HD
ATOM    170  H   GLY A   9      -5.859   7.692  -7.273  0.00  0.00    +0.000 HD
ATOM    171  H   GLY A  10      -3.514   3.930  -8.256  0.00  0.00    +0.000 HD
ATOM    172  H   SER A  11      -1.761   1.333  -5.350  0.00  0.00    +0.000 HD
ATOM    173  H   SER A  11      -1.602  -0.583  -6.906  0.00  0.00    +0.000 HD
ATOM    174  H   GLY A  12      -5.399  -1.107  -4.149  0.00  0.00    +0.000 HD
ATOM    175  H   GLY A  13      -6.044  -1.582   0.204  0.00  0.00    +0.000 HD
ATOM    176  H   TRP A  14      -5.433  -5.559   1.803  0.00  0.00    +0.000 HD
ATOM    177  H   GLY A  15      -2.675  -3.411   4.651  0.00  0.00    +0.000 HD
ATOM    178  H   ASP A  16      -2.334  -2.540   2.011  0.00  0.00    +0.000 HD
ATOM    179  H   ASP A  16       0.733  -1.246  -0.025  0.00  0.00    +0.000 HD
ATOM    180  H   GLY A  17      -2.778  -0.524   3.273  0.00  0.00    +0.000 HD
ATOM    181  H   PHE A  18      -2.555   2.488   3.101  0.00  0.00    +0.000 HD
ATOM    182  H   GLY A  19      -2.256   3.080   0.842  0.00  0.00    +0.000 HD
ATOM    183  H   GLY A  20      -2.040   6.783  -1.664  0.00  0.00    +0.000 HD
ATOM    184  H   GLY A  21      -4.464   6.620  -0.342  0.00  0.00    +0.000 HD
ATOM    185  H   LEU A  22      -8.706   7.982   0.205  0.00  0.00    +0.000 HD
ATOM    186  H   GLY A  23      -8.836   5.546  -1.199  0.00  0.00    +0.000 HD
ATOM    187  H   GLY A  24      -7.881   3.351   0.129  0.00  0.00    +0.000 HD
ATOM    188  H   TYR A  25      -6.733  -0.777   1.456  0.00  0.00    +0.000 HD
ATOM    189  H   TYR A  25      -9.830  -4.886   8.527  0.00  0.00    +0.000 HD
ATOM    190  H   GLY A  26      -6.727  -0.584   5.616  0.00  0.00    +0.000 HD
ATOM    191  H   SER A  27      -2.891  -2.027   7.054  0.00  0.00    +0.000 HD
ATOM    192  H   SER A  27      -0.842  -0.816   8.992  0.00  0.00    +0.000 HD
TER 
