MODEL 1
REMARK VINA RESULT:      -4.4      0.000      0.000
REMARK  Name = ox3_orig_f8_ligand
REMARK  5 active torsions:
REMARK  status: ('A' for Active; 'I' for Inactive)
REMARK    1  A    between atoms: C_1  and  O_2
REMARK    2  A    between atoms: O_2  and  C_3
REMARK    3  A    between atoms: C_6  and  C_7
REMARK    4  A    between atoms: C_7  and  C_9
REMARK    5  A    between atoms: C_15  and  O_16
REMARK                            x       y       z     vdW  Elec       q    Type
REMARK                         _______ _______ _______ _____ _____    ______ ____
ROOT
ATOM      1  C   UNL     1     -11.558   6.618  -5.457  0.00  0.00    +0.000 A 
ATOM      2  C   UNL     1     -11.524   8.013  -5.484  0.00  0.00    +0.000 A 
ATOM      3  C   UNL     1     -11.709   8.734  -4.315  0.00  0.00    +0.000 A 
ATOM      4  C   UNL     1     -11.924   8.076  -3.108  0.00  0.00    +0.000 A 
ATOM      5  C   UNL     1     -11.965   6.682  -3.094  0.00  0.00    +0.000 A 
ATOM      6  C   UNL     1     -11.781   5.967  -4.271  0.00  0.00    +0.000 A 
ENDROOT
BRANCH   1   8
ATOM      7  C   UNL     1     -10.550   6.331  -7.648  0.00  0.00    +0.000 C 
ATOM      8  O   UNL     1     -11.377   5.856  -6.585  0.00  0.00    +0.000 OA
ENDBRANCH   1   8
BRANCH   4   9
ATOM      9  C   UNL     1     -12.136   8.845  -1.834  0.00  0.00    +0.000 C 
ATOM     10  O   UNL     1     -13.187   8.709  -1.253  0.00  0.00    +0.000 OA
BRANCH   9  11
ATOM     11  C   UNL     1     -11.124   9.784  -1.290  0.00  0.00    +0.000 A 
ATOM     12  C   UNL     1      -9.764   9.527  -1.399  0.00  0.00    +0.000 A 
ATOM     13  C   UNL     1      -8.846  10.404  -0.850  0.00  0.00    +0.000 A 
ATOM     14  C   UNL     1      -9.259  11.569  -0.235  0.00  0.00    +0.000 A 
ATOM     15  C   UNL     1     -10.614  11.827  -0.108  0.00  0.00    +0.000 A 
ATOM     16  C   UNL     1     -11.552  10.927  -0.616  0.00  0.00    +0.000 A 
ENDBRANCH   9  11
ENDBRANCH   4   9
BRANCH   5  17
ATOM     17  O   UNL     1     -12.199   6.030  -1.920  0.00  0.00    +0.000 OA
ATOM     18  H   UNL     1     -12.781   6.441  -1.234  0.00  0.00    +0.000 HD
ENDBRANCH   5  17
TORSDOF 4
ENDMDL
MODEL 2
REMARK VINA RESULT:      -4.2      2.886      4.707
REMARK  Name = ox3_orig_f8_ligand
REMARK  5 active torsions:
REMARK  status: ('A' for Active; 'I' for Inactive)
REMARK    1  A    between atoms: C_1  and  O_2
REMARK    2  A    between atoms: O_2  and  C_3
REMARK    3  A    between atoms: C_6  and  C_7
REMARK    4  A    between atoms: C_7  and  C_9
REMARK    5  A    between atoms: C_15  and  O_16
REMARK                            x       y       z     vdW  Elec       q    Type
REMARK                         _______ _______ _______ _____ _____    ______ ____
ROOT
ATOM      1  C   UNL     1     -12.191   9.287  -1.971  0.00  0.00    +0.000 A 
ATOM      2  C   UNL     1     -12.573  10.315  -1.107  0.00  0.00    +0.000 A 
ATOM      3  C   UNL     1     -11.610  11.038  -0.421  0.00  0.00    +0.000 A 
ATOM      4  C   UNL     1     -10.259  10.752  -0.590  0.00  0.00    +0.000 A 
ATOM      5  C   UNL     1      -9.889   9.718  -1.449  0.00  0.00    +0.000 A 
ATOM      6  C   UNL     1     -10.860   8.995  -2.131  0.00  0.00    +0.000 A 
ENDROOT
BRANCH   1   8
ATOM      7  C   UNL     1     -13.025   7.117  -2.669  0.00  0.00    +0.000 C 
ATOM      8  O   UNL     1     -13.103   8.542  -2.677  0.00  0.00    +0.000 OA
ENDBRANCH   1   8
BRANCH   4   9
ATOM      9  C   UNL     1      -9.206  11.522   0.154  0.00  0.00    +0.000 C 
ATOM     10  O   UNL     1      -8.588  12.371  -0.445  0.00  0.00    +0.000 OA
BRANCH   9  11
ATOM     11  C   UNL     1      -8.875  11.254   1.575  0.00  0.00    +0.000 A 
ATOM     12  C   UNL     1      -9.590  11.841   2.609  0.00  0.00    +0.000 A 
ATOM     13  C   UNL     1      -9.235  11.599   3.924  0.00  0.00    +0.000 A 
ATOM     14  C   UNL     1      -8.204  10.735   4.232  0.00  0.00    +0.000 A 
ATOM     15  C   UNL     1      -7.474  10.156   3.207  0.00  0.00    +0.000 A 
ATOM     16  C   UNL     1      -7.792  10.428   1.876  0.00  0.00    +0.000 A 
ENDBRANCH   9  11
ENDBRANCH   4   9
BRANCH   5  17
ATOM     17  O   UNL     1      -8.569   9.415  -1.603  0.00  0.00    +0.000 OA
ATOM     18  H   UNL     1      -8.225   8.537  -1.303  0.00  0.00    +0.000 HD
ENDBRANCH   5  17
TORSDOF 4
ENDMDL
MODEL 3
REMARK VINA RESULT:      -4.2      4.671      7.079
REMARK  Name = ox3_orig_f8_ligand
REMARK  5 active torsions:
REMARK  status: ('A' for Active; 'I' for Inactive)
REMARK    1  A    between atoms: C_1  and  O_2
REMARK    2  A    between atoms: O_2  and  C_3
REMARK    3  A    between atoms: C_6  and  C_7
REMARK    4  A    between atoms: C_7  and  C_9
REMARK    5  A    between atoms: C_15  and  O_16
REMARK                            x       y       z     vdW  Elec       q    Type
REMARK                         _______ _______ _______ _____ _____    ______ ____
ROOT
ATOM      1  C   UNL     1      -5.749  14.276  -2.745  0.00  0.00    +0.000 A 
ATOM      2  C   UNL     1      -6.815  14.682  -1.940  0.00  0.00    +0.000 A 
ATOM      3  C   UNL     1      -7.464  13.762  -1.132  0.00  0.00    +0.000 A 
ATOM      4  C   UNL     1      -7.060  12.431  -1.113  0.00  0.00    +0.000 A 
ATOM      5  C   UNL     1      -6.000  12.034  -1.928  0.00  0.00    +0.000 A 
ATOM      6  C   UNL     1      -5.356  12.962  -2.737  0.00  0.00    +0.000 A 
ENDROOT
BRANCH   1   8
ATOM      7  C   UNL     1      -4.360  14.658  -4.699  0.00  0.00    +0.000 C 
ATOM      8  O   UNL     1      -5.070  15.146  -3.561  0.00  0.00    +0.000 OA
ENDBRANCH   1   8
BRANCH   4   9
ATOM      9  C   UNL     1      -7.761  11.421  -0.250  0.00  0.00    +0.000 C 
ATOM     10  O   UNL     1      -7.199  11.035   0.748  0.00  0.00    +0.000 OA
BRANCH   9  11
ATOM     11  C   UNL     1      -9.089  10.859  -0.596  0.00  0.00    +0.000 A 
ATOM     12  C   UNL     1      -9.213   9.696  -1.344  0.00  0.00    +0.000 A 
ATOM     13  C   UNL     1     -10.465   9.217  -1.680  0.00  0.00    +0.000 A 
ATOM     14  C   UNL     1     -11.609   9.852  -1.239  0.00  0.00    +0.000 A 
ATOM     15  C   UNL     1     -11.497  11.021  -0.506  0.00  0.00    +0.000 A 
ATOM     16  C   UNL     1     -10.239  11.541  -0.198  0.00  0.00    +0.000 A 
ENDBRANCH   9  11
ENDBRANCH   4   9
BRANCH   5  17
ATOM     17  O   UNL     1      -5.612  10.727  -1.934  0.00  0.00    +0.000 OA
ATOM     18  H   UNL     1      -5.509  10.246  -2.793  0.00  0.00    +0.000 HD
ENDBRANCH   5  17
TORSDOF 4
ENDMDL
MODEL 4
REMARK VINA RESULT:      -4.2      3.357      5.130
REMARK  Name = ox3_orig_f8_ligand
REMARK  5 active torsions:
REMARK  status: ('A' for Active; 'I' for Inactive)
REMARK    1  A    between atoms: C_1  and  O_2
REMARK    2  A    between atoms: O_2  and  C_3
REMARK    3  A    between atoms: C_6  and  C_7
REMARK    4  A    between atoms: C_7  and  C_9
REMARK    5  A    between atoms: C_15  and  O_16
REMARK                            x       y       z     vdW  Elec       q    Type
REMARK                         _______ _______ _______ _____ _____    ______ ____
ROOT
ATOM      1  C   UNL     1     -12.679  10.480  -1.223  0.00  0.00    +0.000 A 
ATOM      2  C   UNL     1     -12.298  11.553  -0.415  0.00  0.00    +0.000 A 
ATOM      3  C   UNL     1     -10.974  11.694  -0.027  0.00  0.00    +0.000 A 
ATOM      4  C   UNL     1     -10.016  10.775  -0.443  0.00  0.00    +0.000 A 
ATOM      5  C   UNL     1     -10.410   9.702  -1.242  0.00  0.00    +0.000 A 
ATOM      6  C   UNL     1     -11.739   9.566  -1.624  0.00  0.00    +0.000 A 
ENDROOT
BRANCH   1   8
ATOM      7  C   UNL     1     -14.365   9.064  -2.245  0.00  0.00    +0.000 C 
ATOM      8  O   UNL     1     -13.974  10.296  -1.638  0.00  0.00    +0.000 OA
ENDBRANCH   1   8
BRANCH   4   9
ATOM      9  C   UNL     1      -8.580  10.910  -0.022  0.00  0.00    +0.000 C 
ATOM     10  O   UNL     1      -8.218  10.321   0.969  0.00  0.00    +0.000 OA
BRANCH   9  11
ATOM     11  C   UNL     1      -7.611  11.761  -0.754  0.00  0.00    +0.000 A 
ATOM     12  C   UNL     1      -7.776  13.136  -0.844  0.00  0.00    +0.000 A 
ATOM     13  C   UNL     1      -6.874  13.898  -1.564  0.00  0.00    +0.000 A 
ATOM     14  C   UNL     1      -5.772  13.318  -2.158  0.00  0.00    +0.000 A 
ATOM     15  C   UNL     1      -5.605  11.945  -2.087  0.00  0.00    +0.000 A 
ATOM     16  C   UNL     1      -6.533  11.158  -1.403  0.00  0.00    +0.000 A 
ENDBRANCH   9  11
ENDBRANCH   4   9
BRANCH   5  17
ATOM     17  O   UNL     1      -9.482   8.783  -1.634  0.00  0.00    +0.000 OA
ATOM     18  H   UNL     1      -9.757   8.006  -2.183  0.00  0.00    +0.000 HD
ENDBRANCH   5  17
TORSDOF 4
ENDMDL
MODEL 5
REMARK VINA RESULT:      -4.1      9.728     12.086
REMARK  Name = ox3_orig_f8_ligand
REMARK  5 active torsions:
REMARK  status: ('A' for Active; 'I' for Inactive)
REMARK    1  A    between atoms: C_1  and  O_2
REMARK    2  A    between atoms: O_2  and  C_3
REMARK    3  A    between atoms: C_6  and  C_7
REMARK    4  A    between atoms: C_7  and  C_9
REMARK    5  A    between atoms: C_15  and  O_16
REMARK                            x       y       z     vdW  Elec       q    Type
REMARK                         _______ _______ _______ _____ _____    ______ ____
ROOT
ATOM      1  C   UNL     1      -5.944   8.970   3.726  0.00  0.00    +0.000 A 
ATOM      2  C   UNL     1      -5.929   9.232   5.097  0.00  0.00    +0.000 A 
ATOM      3  C   UNL     1      -4.731   9.207   5.795  0.00  0.00    +0.000 A 
ATOM      4  C   UNL     1      -3.538   8.927   5.138  0.00  0.00    +0.000 A 
ATOM      5  C   UNL     1      -3.566   8.657   3.770  0.00  0.00    +0.000 A 
ATOM      6  C   UNL     1      -4.770   8.681   3.078  0.00  0.00    +0.000 A 
ENDROOT
BRANCH   1   8
ATOM      7  C   UNL     1      -7.580  10.208   2.428  0.00  0.00    +0.000 C 
ATOM      8  O   UNL     1      -7.101   8.985   2.987  0.00  0.00    +0.000 OA
ENDBRANCH   1   8
BRANCH   4   9
ATOM      9  C   UNL     1      -2.234   8.887   5.883  0.00  0.00    +0.000 C 
ATOM     10  O   UNL     1      -1.461   9.804   5.732  0.00  0.00    +0.000 OA
BRANCH   9  11
ATOM     11  C   UNL     1      -1.851   7.756   6.762  0.00  0.00    +0.000 A 
ATOM     12  C   UNL     1      -0.773   6.935   6.460  0.00  0.00    +0.000 A 
ATOM     13  C   UNL     1      -0.462   5.866   7.280  0.00  0.00    +0.000 A 
ATOM     14  C   UNL     1      -1.179   5.627   8.435  0.00  0.00    +0.000 A 
ATOM     15  C   UNL     1      -2.266   6.430   8.738  0.00  0.00    +0.000 A 
ATOM     16  C   UNL     1      -2.620   7.485   7.894  0.00  0.00    +0.000 A 
ENDBRANCH   9  11
ENDBRANCH   4   9
BRANCH   5  17
ATOM     17  O   UNL     1      -2.404   8.358   3.122  0.00  0.00    +0.000 OA
ATOM     18  H   UNL     1      -2.252   7.443   2.777  0.00  0.00    +0.000 HD
ENDBRANCH   5  17
TORSDOF 4
ENDMDL
MODEL 6
REMARK VINA RESULT:      -4.1     10.824     12.770
REMARK  Name = ox3_orig_f8_ligand
REMARK  5 active torsions:
REMARK  status: ('A' for Active; 'I' for Inactive)
REMARK    1  A    between atoms: C_1  and  O_2
REMARK    2  A    between atoms: O_2  and  C_3
REMARK    3  A    between atoms: C_6  and  C_7
REMARK    4  A    between atoms: C_7  and  C_9
REMARK    5  A    between atoms: C_15  and  O_16
REMARK                            x       y       z     vdW  Elec       q    Type
REMARK                         _______ _______ _______ _____ _____    ______ ____
ROOT
ATOM      1  C   UNL     1      -7.930   2.757   9.604  0.00  0.00    +0.000 A 
ATOM      2  C   UNL     1      -8.578   3.916   9.172  0.00  0.00    +0.000 A 
ATOM      3  C   UNL     1      -8.911   4.067   7.835  0.00  0.00    +0.000 A 
ATOM      4  C   UNL     1      -8.608   3.068   6.916  0.00  0.00    +0.000 A 
ATOM      5  C   UNL     1      -7.953   1.918   7.357  0.00  0.00    +0.000 A 
ATOM      6  C   UNL     1      -7.620   1.775   8.698  0.00  0.00    +0.000 A 
ENDROOT
BRANCH   1   8
ATOM      7  C   UNL     1      -7.085   1.285  11.340  0.00  0.00    +0.000 C 
ATOM      8  O   UNL     1      -7.582   2.555  10.917  0.00  0.00    +0.000 OA
ENDBRANCH   1   8
BRANCH   4   9
ATOM      9  C   UNL     1      -8.954   3.223   5.462  0.00  0.00    +0.000 C 
ATOM     10  O   UNL     1      -8.073   3.533   4.695  0.00  0.00    +0.000 OA
BRANCH   9  11
ATOM     11  C   UNL     1     -10.333   3.046   4.946  0.00  0.00    +0.000 A 
ATOM     12  C   UNL     1     -11.048   4.107   4.407  0.00  0.00    +0.000 A 
ATOM     13  C   UNL     1     -12.345   3.918   3.967  0.00  0.00    +0.000 A 
ATOM     14  C   UNL     1     -12.932   2.669   4.007  0.00  0.00    +0.000 A 
ATOM     15  C   UNL     1     -12.234   1.608   4.557  0.00  0.00    +0.000 A 
ATOM     16  C   UNL     1     -10.940   1.794   5.047  0.00  0.00    +0.000 A 
ENDBRANCH   9  11
ENDBRANCH   4   9
BRANCH   5  17
ATOM     17  O   UNL     1      -7.631   0.945   6.459  0.00  0.00    +0.000 OA
ATOM     18  H   UNL     1      -6.868   0.340   6.637  0.00  0.00    +0.000 HD
ENDBRANCH   5  17
TORSDOF 4
ENDMDL
MODEL 7
REMARK VINA RESULT:      -4.0      1.164      1.432
REMARK  Name = ox3_orig_f8_ligand
REMARK  5 active torsions:
REMARK  status: ('A' for Active; 'I' for Inactive)
REMARK    1  A    between atoms: C_1  and  O_2
REMARK    2  A    between atoms: O_2  and  C_3
REMARK    3  A    between atoms: C_6  and  C_7
REMARK    4  A    between atoms: C_7  and  C_9
REMARK    5  A    between atoms: C_15  and  O_16
REMARK                            x       y       z     vdW  Elec       q    Type
REMARK                         _______ _______ _______ _____ _____    ______ ____
ROOT
ATOM      1  C   UNL     1     -10.928   7.257  -6.878  0.00  0.00    +0.000 A 
ATOM      2  C   UNL     1     -11.077   8.603  -6.540  0.00  0.00    +0.000 A 
ATOM      3  C   UNL     1     -11.546   8.955  -5.284  0.00  0.00    +0.000 A 
ATOM      4  C   UNL     1     -11.866   7.974  -4.350  0.00  0.00    +0.000 A 
ATOM      5  C   UNL     1     -11.721   6.632  -4.702  0.00  0.00    +0.000 A 
ATOM      6  C   UNL     1     -11.254   6.288  -5.964  0.00  0.00    +0.000 A 
ENDROOT
BRANCH   1   8
ATOM      7  C   UNL     1     -10.493   5.472  -8.466  0.00  0.00    +0.000 C 
ATOM      8  O   UNL     1     -10.465   6.854  -8.106  0.00  0.00    +0.000 OA
ENDBRANCH   1   8
BRANCH   4   9
ATOM      9  C   UNL     1     -12.384   8.341  -2.989  0.00  0.00    +0.000 C 
ATOM     10  O   UNL     1     -13.425   7.849  -2.622  0.00  0.00    +0.000 OA
BRANCH   9  11
ATOM     11  C   UNL     1     -11.687   9.305  -2.102  0.00  0.00    +0.000 A 
ATOM     12  C   UNL     1     -10.360   9.126  -1.737  0.00  0.00    +0.000 A 
ATOM     13  C   UNL     1      -9.749  10.023  -0.880  0.00  0.00    +0.000 A 
ATOM     14  C   UNL     1     -10.425  11.134  -0.417  0.00  0.00    +0.000 A 
ATOM     15  C   UNL     1     -11.754  11.313  -0.763  0.00  0.00    +0.000 A 
ATOM     16  C   UNL     1     -12.397  10.390  -1.589  0.00  0.00    +0.000 A 
ENDBRANCH   9  11
ENDBRANCH   4   9
BRANCH   5  17
ATOM     17  O   UNL     1     -12.055   5.664  -3.802  0.00  0.00    +0.000 OA
ATOM     18  H   UNL     1     -12.885   5.749  -3.270  0.00  0.00    +0.000 HD
ENDBRANCH   5  17
TORSDOF 4
ENDMDL
MODEL 8
REMARK VINA RESULT:      -3.9      4.366      7.671
REMARK  Name = ox3_orig_f8_ligand
REMARK  5 active torsions:
REMARK  status: ('A' for Active; 'I' for Inactive)
REMARK    1  A    between atoms: C_1  and  O_2
REMARK    2  A    between atoms: O_2  and  C_3
REMARK    3  A    between atoms: C_6  and  C_7
REMARK    4  A    between atoms: C_7  and  C_9
REMARK    5  A    between atoms: C_15  and  O_16
REMARK                            x       y       z     vdW  Elec       q    Type
REMARK                         _______ _______ _______ _____ _____    ______ ____
ROOT
ATOM      1  C   UNL     1      -5.694  10.338   2.628  0.00  0.00    +0.000 A 
ATOM      2  C   UNL     1      -7.038  10.093   2.916  0.00  0.00    +0.000 A 
ATOM      3  C   UNL     1      -8.027  10.577   2.075  0.00  0.00    +0.000 A 
ATOM      4  C   UNL     1      -7.692  11.303   0.937  0.00  0.00    +0.000 A 
ATOM      5  C   UNL     1      -6.347  11.550   0.663  0.00  0.00    +0.000 A 
ATOM      6  C   UNL     1      -5.361  11.064   1.513  0.00  0.00    +0.000 A 
ENDROOT
BRANCH   1   8
ATOM      7  C   UNL     1      -4.143   8.569   3.229  0.00  0.00    +0.000 C 
ATOM      8  O   UNL     1      -4.675   9.880   3.425  0.00  0.00    +0.000 OA
ENDBRANCH   1   8
BRANCH   4   9
ATOM      9  C   UNL     1      -8.755  11.841   0.021  0.00  0.00    +0.000 C 
ATOM     10  O   UNL     1      -8.739  13.021  -0.241  0.00  0.00    +0.000 OA
BRANCH   9  11
ATOM     11  C   UNL     1      -9.834  10.990  -0.537  0.00  0.00    +0.000 A 
ATOM     12  C   UNL     1     -11.173  11.294  -0.338  0.00  0.00    +0.000 A 
ATOM     13  C   UNL     1     -12.156  10.461  -0.841  0.00  0.00    +0.000 A 
ATOM     14  C   UNL     1     -11.828   9.349  -1.590  0.00  0.00    +0.000 A 
ATOM     15  C   UNL     1     -10.494   9.029  -1.782  0.00  0.00    +0.000 A 
ATOM     16  C   UNL     1      -9.492   9.835  -1.240  0.00  0.00    +0.000 A 
ENDBRANCH   9  11
ENDBRANCH   4   9
BRANCH   5  17
ATOM     17  O   UNL     1      -6.011  12.281  -0.437  0.00  0.00    +0.000 OA
ATOM     18  H   UNL     1      -6.039  11.866  -1.335  0.00  0.00    +0.000 HD
ENDBRANCH   5  17
TORSDOF 4
ENDMDL
MODEL 9
REMARK VINA RESULT:      -3.9      2.529      4.300
REMARK  Name = ox3_orig_f8_ligand
REMARK  5 active torsions:
REMARK  status: ('A' for Active; 'I' for Inactive)
REMARK    1  A    between atoms: C_1  and  O_2
REMARK    2  A    between atoms: O_2  and  C_3
REMARK    3  A    between atoms: C_6  and  C_7
REMARK    4  A    between atoms: C_7  and  C_9
REMARK    5  A    between atoms: C_15  and  O_16
REMARK                            x       y       z     vdW  Elec       q    Type
REMARK                         _______ _______ _______ _____ _____    ______ ____
ROOT
ATOM      1  C   UNL     1     -14.200   5.668  -0.103  0.00  0.00    +0.000 A 
ATOM      2  C   UNL     1     -14.582   6.967   0.236  0.00  0.00    +0.000 A 
ATOM      3  C   UNL     1     -13.983   8.051  -0.387  0.00  0.00    +0.000 A 
ATOM      4  C   UNL     1     -13.003   7.855  -1.355  0.00  0.00    +0.000 A 
ATOM      5  C   UNL     1     -12.623   6.553  -1.679  0.00  0.00    +0.000 A 
ATOM      6  C   UNL     1     -13.226   5.472  -1.048  0.00  0.00    +0.000 A 
ENDROOT
BRANCH   1   8
ATOM      7  C   UNL     1     -14.075   3.871   1.526  0.00  0.00    +0.000 C 
ATOM      8  O   UNL     1     -14.763   4.560   0.481  0.00  0.00    +0.000 OA
ENDBRANCH   1   8
BRANCH   4   9
ATOM      9  C   UNL     1     -12.339   9.021  -2.031  0.00  0.00    +0.000 C 
ATOM     10  O   UNL     1     -12.647   9.269  -3.173  0.00  0.00    +0.000 OA
BRANCH   9  11
ATOM     11  C   UNL     1     -11.302   9.846  -1.365  0.00  0.00    +0.000 A 
ATOM     12  C   UNL     1     -11.637  10.972  -0.625  0.00  0.00    +0.000 A 
ATOM     13  C   UNL     1     -10.645  11.741  -0.044  0.00  0.00    +0.000 A 
ATOM     14  C   UNL     1      -9.316  11.379  -0.146  0.00  0.00    +0.000 A 
ATOM     15  C   UNL     1      -8.971  10.266  -0.895  0.00  0.00    +0.000 A 
ATOM     16  C   UNL     1      -9.959   9.507  -1.524  0.00  0.00    +0.000 A 
ENDBRANCH   9  11
ENDBRANCH   4   9
BRANCH   5  17
ATOM     17  O   UNL     1     -11.646   6.352  -2.608  0.00  0.00    +0.000 OA
ATOM     18  H   UNL     1     -10.924   5.698  -2.433  0.00  0.00    +0.000 HD
ENDBRANCH   5  17
TORSDOF 4
ENDMDL
