REMARK  Name = s3_orig_f12_ligand
REMARK  12 active torsions:
REMARK  status: ('A' for Active; 'I' for Inactive)
REMARK    1  A    between atoms: C_1  and  C_2
REMARK    2  A    between atoms: C_2  and  C_3
REMARK    3  A    between atoms: C_3  and  C_4
REMARK    4  A    between atoms: C_4  and  C_5
REMARK    5  A    between atoms: C_5  and  C_6
REMARK    6  A    between atoms: C_5  and  O_8
REMARK    7  A    between atoms: C_6  and  C_7
REMARK    8  A    between atoms: O_8  and  C_9
REMARK    9  A    between atoms: C_9  and  C_11
REMARK   10  A    between atoms: C_12  and  C_13
REMARK   11  A    between atoms: C_16  and  O_17
REMARK   12  A    between atoms: O_17  and  C_18
REMARK                            x       y       z     vdW  Elec       q    Type
REMARK                         _______ _______ _______ _____ _____    ______ ____
ROOT
ATOM      1  C   UNL     1      10.315  -2.049   1.401  0.00  0.00    +0.000 C 
ATOM      2  O   UNL     1      11.412  -2.533   1.504  0.00  0.00    +0.000 OA
ENDROOT
BRANCH   1   3
ATOM      3  C   UNL     1      10.028  -0.774   0.702  0.00  0.00    +0.000 C 
ATOM      4  C   UNL     1      10.988  -0.057   0.122  0.00  0.00    +0.000 C 
BRANCH   4   5
ATOM      5  C   UNL     1      10.778   1.272  -0.505  0.00  0.00    +0.000 A 
ATOM      6  C   UNL     1      11.875   2.066  -0.795  0.00  0.00    +0.000 A 
ATOM      7  C   UNL     1      11.705   3.347  -1.307  0.00  0.00    +0.000 A 
ATOM      8  C   UNL     1      10.445   3.830  -1.594  0.00  0.00    +0.000 A 
ATOM      9  C   UNL     1       9.365   3.021  -1.355  0.00  0.00    +0.000 A 
ATOM     10  C   UNL     1       9.529   1.748  -0.812  0.00  0.00    +0.000 A 
BRANCH   8  11
ATOM     11  O   UNL     1      10.229   5.088  -2.119  0.00  0.00    +0.000 OA
ATOM     12  C   UNL     1      11.149   6.108  -1.780  0.00  0.00    +0.000 C 
ENDBRANCH   8  11
ENDBRANCH   4   5
ENDBRANCH   1   3
BRANCH   1  13
ATOM     13  O   UNL     1       9.363  -2.630   1.939  0.00  0.00    +0.000 OA
BRANCH  13  14
ATOM     14  C   UNL     1       8.614  -3.473   2.625  0.00  0.00    +0.000 C 
BRANCH  14  15
ATOM     15  C   UNL     1       8.917  -4.900   2.209  0.00  0.00    +0.000 C 
ATOM     16  C   UNL     1       8.161  -5.955   3.010  0.00  0.00    +0.000 C 
ENDBRANCH  14  15
BRANCH  14  17
ATOM     17  C   UNL     1       8.815  -3.313   4.123  0.00  0.00    +0.000 C 
BRANCH  17  18
ATOM     18  C   UNL     1       8.918  -1.901   4.597  0.00  0.00    +0.000 C 
BRANCH  18  20
ATOM     19  C   UNL     1       8.567  -0.290   6.475  0.00  0.00    +0.000 C 
ATOM     20  C   UNL     1       8.422  -1.722   6.009  0.00  0.00    +0.000 C 
ENDBRANCH  18  20
ENDBRANCH  17  18
ENDBRANCH  14  17
ENDBRANCH  13  14
ENDBRANCH   1  13
TORSDOF 9
