MODEL 1
REMARK VINA RESULT:      -4.9      0.000      0.000
REMARK  Name = s3_orig_f12_ligand
REMARK  12 active torsions:
REMARK  status: ('A' for Active; 'I' for Inactive)
REMARK    1  A    between atoms: C_1  and  C_2
REMARK    2  A    between atoms: C_2  and  C_3
REMARK    3  A    between atoms: C_3  and  C_4
REMARK    4  A    between atoms: C_4  and  C_5
REMARK    5  A    between atoms: C_5  and  C_6
REMARK    6  A    between atoms: C_5  and  O_8
REMARK    7  A    between atoms: C_6  and  C_7
REMARK    8  A    between atoms: O_8  and  C_9
REMARK    9  A    between atoms: C_9  and  C_11
REMARK   10  A    between atoms: C_12  and  C_13
REMARK   11  A    between atoms: C_16  and  O_17
REMARK   12  A    between atoms: O_17  and  C_18
REMARK                            x       y       z     vdW  Elec       q    Type
REMARK                         _______ _______ _______ _____ _____    ______ ____
ROOT
ATOM      1  C   UNL     1       8.834  -1.759   0.836  0.00  0.00    +0.000 C 
ATOM      2  O   UNL     1       8.945  -2.952   0.726  0.00  0.00    +0.000 OA
ENDROOT
BRANCH   1   3
ATOM      3  C   UNL     1       8.999  -0.799  -0.281  0.00  0.00    +0.000 C 
ATOM      4  C   UNL     1       9.780   0.274  -0.179  0.00  0.00    +0.000 C 
BRANCH   4   5
ATOM      5  C   UNL     1       9.908   1.320  -1.224  0.00  0.00    +0.000 A 
ATOM      6  C   UNL     1      11.109   1.995  -1.365  0.00  0.00    +0.000 A 
ATOM      7  C   UNL     1      11.233   3.034  -2.280  0.00  0.00    +0.000 A 
ATOM      8  C   UNL     1      10.183   3.373  -3.108  0.00  0.00    +0.000 A 
ATOM      9  C   UNL     1       9.013   2.667  -3.002  0.00  0.00    +0.000 A 
ATOM     10  C   UNL     1       8.875   1.646  -2.065  0.00  0.00    +0.000 A 
BRANCH   8  11
ATOM     11  O   UNL     1      10.266   4.385  -4.043  0.00  0.00    +0.000 OA
ATOM     12  C   UNL     1       9.083   5.102  -4.341  0.00  0.00    +0.000 C 
ENDBRANCH   8  11
ENDBRANCH   4   5
ENDBRANCH   1   3
BRANCH   1  13
ATOM     13  O   UNL     1       8.599  -1.291   1.958  0.00  0.00    +0.000 OA
BRANCH  13  14
ATOM     14  C   UNL     1       8.007  -0.884   3.066  0.00  0.00    +0.000 C 
BRANCH  14  15
ATOM     15  C   UNL     1       8.202  -1.907   4.169  0.00  0.00    +0.000 C 
ATOM     16  C   UNL     1       7.789  -1.415   5.552  0.00  0.00    +0.000 C 
ENDBRANCH  14  15
BRANCH  14  17
ATOM     17  C   UNL     1       8.525   0.472   3.515  0.00  0.00    +0.000 C 
BRANCH  17  18
ATOM     18  C   UNL     1       7.957   1.639   2.778  0.00  0.00    +0.000 C 
BRANCH  18  20
ATOM     19  C   UNL     1       9.949   3.063   2.279  0.00  0.00    +0.000 C 
ATOM     20  C   UNL     1       8.675   2.929   3.083  0.00  0.00    +0.000 C 
ENDBRANCH  18  20
ENDBRANCH  17  18
ENDBRANCH  14  17
ENDBRANCH  13  14
ENDBRANCH   1  13
TORSDOF 9
ENDMDL
MODEL 2
REMARK VINA RESULT:      -4.8      2.448      7.215
REMARK  Name = s3_orig_f12_ligand
REMARK  12 active torsions:
REMARK  status: ('A' for Active; 'I' for Inactive)
REMARK    1  A    between atoms: C_1  and  C_2
REMARK    2  A    between atoms: C_2  and  C_3
REMARK    3  A    between atoms: C_3  and  C_4
REMARK    4  A    between atoms: C_4  and  C_5
REMARK    5  A    between atoms: C_5  and  C_6
REMARK    6  A    between atoms: C_5  and  O_8
REMARK    7  A    between atoms: C_6  and  C_7
REMARK    8  A    between atoms: O_8  and  C_9
REMARK    9  A    between atoms: C_9  and  C_11
REMARK   10  A    between atoms: C_12  and  C_13
REMARK   11  A    between atoms: C_16  and  O_17
REMARK   12  A    between atoms: O_17  and  C_18
REMARK                            x       y       z     vdW  Elec       q    Type
REMARK                         _______ _______ _______ _____ _____    ______ ____
ROOT
ATOM      1  C   UNL     1       9.052   0.079  -1.354  0.00  0.00    +0.000 C 
ATOM      2  O   UNL     1       8.148   0.450  -2.057  0.00  0.00    +0.000 OA
ENDROOT
BRANCH   1   3
ATOM      3  C   UNL     1       9.001  -1.131  -0.499  0.00  0.00    +0.000 C 
ATOM      4  C   UNL     1       8.728  -1.063   0.802  0.00  0.00    +0.000 C 
BRANCH   4   5
ATOM      5  C   UNL     1       8.759  -2.224   1.726  0.00  0.00    +0.000 A 
ATOM      6  C   UNL     1       8.582  -2.015   3.084  0.00  0.00    +0.000 A 
ATOM      7  C   UNL     1       8.687  -3.071   3.981  0.00  0.00    +0.000 A 
ATOM      8  C   UNL     1       8.909  -4.357   3.534  0.00  0.00    +0.000 A 
ATOM      9  C   UNL     1       9.032  -4.568   2.185  0.00  0.00    +0.000 A 
ATOM     10  C   UNL     1       8.959  -3.507   1.284  0.00  0.00    +0.000 A 
BRANCH   8  11
ATOM     11  O   UNL     1       9.004  -5.439   4.386  0.00  0.00    +0.000 OA
ATOM     12  C   UNL     1       9.281  -6.703   3.814  0.00  0.00    +0.000 C 
ENDBRANCH   8  11
ENDBRANCH   4   5
ENDBRANCH   1   3
BRANCH   1  13
ATOM     13  O   UNL     1      10.083   0.763  -1.311  0.00  0.00    +0.000 OA
BRANCH  13  14
ATOM     14  C   UNL     1      10.971   1.707  -1.060  0.00  0.00    +0.000 C 
BRANCH  14  15
ATOM     15  C   UNL     1      10.912   2.779  -2.132  0.00  0.00    +0.000 C 
ATOM     16  C   UNL     1      12.247   3.469  -2.395  0.00  0.00    +0.000 C 
ENDBRANCH  14  15
BRANCH  14  17
ATOM     17  C   UNL     1      10.758   2.329   0.310  0.00  0.00    +0.000 C 
BRANCH  17  18
ATOM     18  C   UNL     1      11.276   1.522   1.455  0.00  0.00    +0.000 C 
BRANCH  18  20
ATOM     19  C   UNL     1       9.042   2.172   2.367  0.00  0.00    +0.000 C 
ATOM     20  C   UNL     1      10.424   1.650   2.692  0.00  0.00    +0.000 C 
ENDBRANCH  18  20
ENDBRANCH  17  18
ENDBRANCH  14  17
ENDBRANCH  13  14
ENDBRANCH   1  13
TORSDOF 9
ENDMDL
MODEL 3
REMARK VINA RESULT:      -4.7      2.785      7.718
REMARK  Name = s3_orig_f12_ligand
REMARK  12 active torsions:
REMARK  status: ('A' for Active; 'I' for Inactive)
REMARK    1  A    between atoms: C_1  and  C_2
REMARK    2  A    between atoms: C_2  and  C_3
REMARK    3  A    between atoms: C_3  and  C_4
REMARK    4  A    between atoms: C_4  and  C_5
REMARK    5  A    between atoms: C_5  and  C_6
REMARK    6  A    between atoms: C_5  and  O_8
REMARK    7  A    between atoms: C_6  and  C_7
REMARK    8  A    between atoms: O_8  and  C_9
REMARK    9  A    between atoms: C_9  and  C_11
REMARK   10  A    between atoms: C_12  and  C_13
REMARK   11  A    between atoms: C_16  and  O_17
REMARK   12  A    between atoms: O_17  and  C_18
REMARK                            x       y       z     vdW  Elec       q    Type
REMARK                         _______ _______ _______ _____ _____    ______ ____
ROOT
ATOM      1  C   UNL     1       8.791   0.483   1.738  0.00  0.00    +0.000 C 
ATOM      2  O   UNL     1       7.949   1.211   2.195  0.00  0.00    +0.000 OA
ENDROOT
BRANCH   1   3
ATOM      3  C   UNL     1       9.105  -0.865   2.268  0.00  0.00    +0.000 C 
ATOM      4  C   UNL     1       8.614  -1.971   1.713  0.00  0.00    +0.000 C 
BRANCH   4   5
ATOM      5  C   UNL     1       8.812  -3.339   2.256  0.00  0.00    +0.000 A 
ATOM      6  C   UNL     1       8.720  -3.546   3.623  0.00  0.00    +0.000 A 
ATOM      7  C   UNL     1       8.980  -4.798   4.167  0.00  0.00    +0.000 A 
ATOM      8  C   UNL     1       9.274  -5.873   3.354  0.00  0.00    +0.000 A 
ATOM      9  C   UNL     1       9.313  -5.676   1.998  0.00  0.00    +0.000 A 
ATOM     10  C   UNL     1       9.084  -4.415   1.451  0.00  0.00    +0.000 A 
BRANCH   8  11
ATOM     11  O   UNL     1       9.522  -7.137   3.848  0.00  0.00    +0.000 OA
ATOM     12  C   UNL     1       9.743  -8.176   2.913  0.00  0.00    +0.000 C 
ENDBRANCH   8  11
ENDBRANCH   4   5
ENDBRANCH   1   3
BRANCH   1  13
ATOM     13  O   UNL     1       9.467   0.891   0.784  0.00  0.00    +0.000 OA
BRANCH  13  14
ATOM     14  C   UNL     1      10.392   1.038  -0.146  0.00  0.00    +0.000 C 
BRANCH  14  15
ATOM     15  C   UNL     1      10.168   0.043  -1.269  0.00  0.00    +0.000 C 
ATOM     16  C   UNL     1       8.699  -0.225  -1.578  0.00  0.00    +0.000 C 
ENDBRANCH  14  15
BRANCH  14  17
ATOM     17  C   UNL     1      10.414   2.453  -0.700  0.00  0.00    +0.000 C 
BRANCH  17  18
ATOM     18  C   UNL     1      11.102   2.603  -2.016  0.00  0.00    +0.000 C 
BRANCH  18  20
ATOM     19  C   UNL     1       8.986   3.044  -3.269  0.00  0.00    +0.000 C 
ATOM     20  C   UNL     1      10.379   3.540  -2.949  0.00  0.00    +0.000 C 
ENDBRANCH  18  20
ENDBRANCH  17  18
ENDBRANCH  14  17
ENDBRANCH  13  14
ENDBRANCH   1  13
TORSDOF 9
ENDMDL
MODEL 4
REMARK VINA RESULT:      -4.7      2.083      2.975
REMARK  Name = s3_orig_f12_ligand
REMARK  12 active torsions:
REMARK  status: ('A' for Active; 'I' for Inactive)
REMARK    1  A    between atoms: C_1  and  C_2
REMARK    2  A    between atoms: C_2  and  C_3
REMARK    3  A    between atoms: C_3  and  C_4
REMARK    4  A    between atoms: C_4  and  C_5
REMARK    5  A    between atoms: C_5  and  C_6
REMARK    6  A    between atoms: C_5  and  O_8
REMARK    7  A    between atoms: C_6  and  C_7
REMARK    8  A    between atoms: O_8  and  C_9
REMARK    9  A    between atoms: C_9  and  C_11
REMARK   10  A    between atoms: C_12  and  C_13
REMARK   11  A    between atoms: C_16  and  O_17
REMARK   12  A    between atoms: O_17  and  C_18
REMARK                            x       y       z     vdW  Elec       q    Type
REMARK                         _______ _______ _______ _____ _____    ______ ____
ROOT
ATOM      1  C   UNL     1       9.145  -0.132  -1.077  0.00  0.00    +0.000 C 
ATOM      2  O   UNL     1       8.360  -0.670  -1.814  0.00  0.00    +0.000 OA
ENDROOT
BRANCH   1   3
ATOM      3  C   UNL     1      10.172   0.841  -1.518  0.00  0.00    +0.000 C 
ATOM      4  C   UNL     1       9.859   2.087  -1.866  0.00  0.00    +0.000 C 
BRANCH   4   5
ATOM      5  C   UNL     1      10.826   3.073  -2.409  0.00  0.00    +0.000 A 
ATOM      6  C   UNL     1      10.378   4.059  -3.273  0.00  0.00    +0.000 A 
ATOM      7  C   UNL     1      11.273   4.945  -3.860  0.00  0.00    +0.000 A 
ATOM      8  C   UNL     1      12.616   4.901  -3.547  0.00  0.00    +0.000 A 
ATOM      9  C   UNL     1      13.048   3.959  -2.651  0.00  0.00    +0.000 A 
ATOM     10  C   UNL     1      12.159   3.048  -2.085  0.00  0.00    +0.000 A 
BRANCH   8  11
ATOM     11  O   UNL     1      13.538   5.772  -4.092  0.00  0.00    +0.000 OA
ATOM     12  C   UNL     1      13.541   5.930  -5.498  0.00  0.00    +0.000 C 
ENDBRANCH   8  11
ENDBRANCH   4   5
ENDBRANCH   1   3
BRANCH   1  13
ATOM     13  O   UNL     1       9.122  -0.429   0.125  0.00  0.00    +0.000 OA
BRANCH  13  14
ATOM     14  C   UNL     1       9.038  -0.387   1.442  0.00  0.00    +0.000 C 
BRANCH  14  15
ATOM     15  C   UNL     1       9.314  -1.759   2.027  0.00  0.00    +0.000 C 
ATOM     16  C   UNL     1       8.736  -2.911   1.211  0.00  0.00    +0.000 C 
ENDBRANCH  14  15
BRANCH  14  17
ATOM     17  C   UNL     1       9.996   0.634   2.034  0.00  0.00    +0.000 C 
BRANCH  17  18
ATOM     18  C   UNL     1       9.461   2.026   2.113  0.00  0.00    +0.000 C 
BRANCH  18  20
ATOM     19  C   UNL     1      11.843   2.524   1.541  0.00  0.00    +0.000 C 
ATOM     20  C   UNL     1      10.425   3.052   1.575  0.00  0.00    +0.000 C 
ENDBRANCH  18  20
ENDBRANCH  17  18
ENDBRANCH  14  17
ENDBRANCH  13  14
ENDBRANCH   1  13
TORSDOF 9
ENDMDL
MODEL 5
REMARK VINA RESULT:      -4.6      2.342      3.166
REMARK  Name = s3_orig_f12_ligand
REMARK  12 active torsions:
REMARK  status: ('A' for Active; 'I' for Inactive)
REMARK    1  A    between atoms: C_1  and  C_2
REMARK    2  A    between atoms: C_2  and  C_3
REMARK    3  A    between atoms: C_3  and  C_4
REMARK    4  A    between atoms: C_4  and  C_5
REMARK    5  A    between atoms: C_5  and  C_6
REMARK    6  A    between atoms: C_5  and  O_8
REMARK    7  A    between atoms: C_6  and  C_7
REMARK    8  A    between atoms: O_8  and  C_9
REMARK    9  A    between atoms: C_9  and  C_11
REMARK   10  A    between atoms: C_12  and  C_13
REMARK   11  A    between atoms: C_16  and  O_17
REMARK   12  A    between atoms: O_17  and  C_18
REMARK                            x       y       z     vdW  Elec       q    Type
REMARK                         _______ _______ _______ _____ _____    ______ ____
ROOT
ATOM      1  C   UNL     1       9.046  -0.551  -1.084  0.00  0.00    +0.000 C 
ATOM      2  O   UNL     1       8.223  -0.688  -1.951  0.00  0.00    +0.000 OA
ENDROOT
BRANCH   1   3
ATOM      3  C   UNL     1      10.220   0.347  -1.183  0.00  0.00    +0.000 C 
ATOM      4  C   UNL     1      10.153   1.634  -0.846  0.00  0.00    +0.000 C 
BRANCH   4   5
ATOM      5  C   UNL     1      11.264   2.603  -1.015  0.00  0.00    +0.000 A 
ATOM      6  C   UNL     1      11.743   2.870  -2.287  0.00  0.00    +0.000 A 
ATOM      7  C   UNL     1      12.835   3.710  -2.470  0.00  0.00    +0.000 A 
ATOM      8  C   UNL     1      13.424   4.343  -1.395  0.00  0.00    +0.000 A 
ATOM      9  C   UNL     1      12.914   4.118  -0.143  0.00  0.00    +0.000 A 
ATOM     10  C   UNL     1      11.839   3.251   0.047  0.00  0.00    +0.000 A 
BRANCH   8  11
ATOM     11  O   UNL     1      14.499   5.199  -1.530  0.00  0.00    +0.000 OA
ATOM     12  C   UNL     1      14.480   6.112  -2.611  0.00  0.00    +0.000 C 
ENDBRANCH   8  11
ENDBRANCH   4   5
ENDBRANCH   1   3
BRANCH   1  13
ATOM     13  O   UNL     1       8.930  -1.226  -0.052  0.00  0.00    +0.000 OA
BRANCH  13  14
ATOM     14  C   UNL     1       8.501  -1.748   1.082  0.00  0.00    +0.000 C 
BRANCH  14  15
ATOM     15  C   UNL     1       8.849  -3.224   1.143  0.00  0.00    +0.000 C 
ATOM     16  C   UNL     1       9.060  -3.754   2.557  0.00  0.00    +0.000 C 
ENDBRANCH  14  15
BRANCH  14  17
ATOM     17  C   UNL     1       9.079  -1.026   2.288  0.00  0.00    +0.000 C 
BRANCH  17  18
ATOM     18  C   UNL     1       8.658   0.399   2.429  0.00  0.00    +0.000 C 
BRANCH  18  20
ATOM     19  C   UNL     1      11.139   0.635   2.617  0.00  0.00    +0.000 C 
ATOM     20  C   UNL     1       9.798   1.309   2.809  0.00  0.00    +0.000 C 
ENDBRANCH  18  20
ENDBRANCH  17  18
ENDBRANCH  14  17
ENDBRANCH  13  14
ENDBRANCH   1  13
TORSDOF 9
ENDMDL
MODEL 6
REMARK VINA RESULT:      -4.5      1.406      2.021
REMARK  Name = s3_orig_f12_ligand
REMARK  12 active torsions:
REMARK  status: ('A' for Active; 'I' for Inactive)
REMARK    1  A    between atoms: C_1  and  C_2
REMARK    2  A    between atoms: C_2  and  C_3
REMARK    3  A    between atoms: C_3  and  C_4
REMARK    4  A    between atoms: C_4  and  C_5
REMARK    5  A    between atoms: C_5  and  C_6
REMARK    6  A    between atoms: C_5  and  O_8
REMARK    7  A    between atoms: C_6  and  C_7
REMARK    8  A    between atoms: O_8  and  C_9
REMARK    9  A    between atoms: C_9  and  C_11
REMARK   10  A    between atoms: C_12  and  C_13
REMARK   11  A    between atoms: C_16  and  O_17
REMARK   12  A    between atoms: O_17  and  C_18
REMARK                            x       y       z     vdW  Elec       q    Type
REMARK                         _______ _______ _______ _____ _____    ______ ____
ROOT
ATOM      1  C   UNL     1       9.105  -1.226   0.801  0.00  0.00    +0.000 C 
ATOM      2  O   UNL     1       8.646  -2.325   0.627  0.00  0.00    +0.000 OA
ENDROOT
BRANCH   1   3
ATOM      3  C   UNL     1       9.075  -0.141  -0.208  0.00  0.00    +0.000 C 
ATOM      4  C   UNL     1      10.182   0.483  -0.604  0.00  0.00    +0.000 C 
BRANCH   4   5
ATOM      5  C   UNL     1      10.204   1.641  -1.534  0.00  0.00    +0.000 A 
ATOM      6  C   UNL     1       9.057   1.967  -2.237  0.00  0.00    +0.000 A 
ATOM      7  C   UNL     1       9.070   2.994  -3.174  0.00  0.00    +0.000 A 
ATOM      8  C   UNL     1      10.208   3.748  -3.377  0.00  0.00    +0.000 A 
ATOM      9  C   UNL     1      11.326   3.456  -2.640  0.00  0.00    +0.000 A 
ATOM     10  C   UNL     1      11.326   2.407  -1.723  0.00  0.00    +0.000 A 
BRANCH   8  11
ATOM     11  O   UNL     1      10.262   4.788  -4.283  0.00  0.00    +0.000 OA
ATOM     12  C   UNL     1       9.499   5.945  -4.002  0.00  0.00    +0.000 C 
ENDBRANCH   8  11
ENDBRANCH   4   5
ENDBRANCH   1   3
BRANCH   1  13
ATOM     13  O   UNL     1       9.671  -0.989   1.876  0.00  0.00    +0.000 OA
BRANCH  13  14
ATOM     14  C   UNL     1       9.989  -0.923   3.155  0.00  0.00    +0.000 C 
BRANCH  14  15
ATOM     15  C   UNL     1      11.013  -1.989   3.496  0.00  0.00    +0.000 C 
ATOM     16  C   UNL     1      10.453  -3.407   3.508  0.00  0.00    +0.000 C 
ENDBRANCH  14  15
BRANCH  14  17
ATOM     17  C   UNL     1      10.521   0.450   3.532  0.00  0.00    +0.000 C 
BRANCH  17  18
ATOM     18  C   UNL     1      11.595   0.976   2.637  0.00  0.00    +0.000 C 
BRANCH  18  20
ATOM     19  C   UNL     1       9.998   2.816   2.078  0.00  0.00    +0.000 C 
ATOM     20  C   UNL     1      11.441   2.447   2.344  0.00  0.00    +0.000 C 
ENDBRANCH  18  20
ENDBRANCH  17  18
ENDBRANCH  14  17
ENDBRANCH  13  14
ENDBRANCH   1  13
TORSDOF 9
ENDMDL
MODEL 7
REMARK VINA RESULT:      -4.4      2.717      7.278
REMARK  Name = s3_orig_f12_ligand
REMARK  12 active torsions:
REMARK  status: ('A' for Active; 'I' for Inactive)
REMARK    1  A    between atoms: C_1  and  C_2
REMARK    2  A    between atoms: C_2  and  C_3
REMARK    3  A    between atoms: C_3  and  C_4
REMARK    4  A    between atoms: C_4  and  C_5
REMARK    5  A    between atoms: C_5  and  C_6
REMARK    6  A    between atoms: C_5  and  O_8
REMARK    7  A    between atoms: C_6  and  C_7
REMARK    8  A    between atoms: O_8  and  C_9
REMARK    9  A    between atoms: C_9  and  C_11
REMARK   10  A    between atoms: C_12  and  C_13
REMARK   11  A    between atoms: C_16  and  O_17
REMARK   12  A    between atoms: O_17  and  C_18
REMARK                            x       y       z     vdW  Elec       q    Type
REMARK                         _______ _______ _______ _____ _____    ______ ____
ROOT
ATOM      1  C   UNL     1       7.808   0.576   2.554  0.00  0.00    +0.000 C 
ATOM      2  O   UNL     1       6.924   1.271   2.982  0.00  0.00    +0.000 OA
ENDROOT
BRANCH   1   3
ATOM      3  C   UNL     1       7.861  -0.897   2.710  0.00  0.00    +0.000 C 
ATOM      4  C   UNL     1       8.945  -1.601   2.392  0.00  0.00    +0.000 C 
BRANCH   4   5
ATOM      5  C   UNL     1       9.024  -3.083   2.433  0.00  0.00    +0.000 A 
ATOM      6  C   UNL     1       9.109  -3.724   3.657  0.00  0.00    +0.000 A 
ATOM      7  C   UNL     1       9.265  -5.103   3.724  0.00  0.00    +0.000 A 
ATOM      8  C   UNL     1       9.277  -5.867   2.575  0.00  0.00    +0.000 A 
ATOM      9  C   UNL     1       9.139  -5.234   1.367  0.00  0.00    +0.000 A 
ATOM     10  C   UNL     1       9.014  -3.848   1.295  0.00  0.00    +0.000 A 
BRANCH   8  11
ATOM     11  O   UNL     1       9.412  -7.241   2.593  0.00  0.00    +0.000 OA
ATOM     12  C   UNL     1      10.499  -7.803   1.882  0.00  0.00    +0.000 C 
ENDBRANCH   8  11
ENDBRANCH   4   5
ENDBRANCH   1   3
BRANCH   1  13
ATOM     13  O   UNL     1       8.756   1.121   1.974  0.00  0.00    +0.000 OA
BRANCH  13  14
ATOM     14  C   UNL     1       9.613   2.003   1.494  0.00  0.00    +0.000 C 
BRANCH  14  15
ATOM     15  C   UNL     1      10.224   2.807   2.626  0.00  0.00    +0.000 C 
ATOM     16  C   UNL     1       9.398   4.018   3.045  0.00  0.00    +0.000 C 
ENDBRANCH  14  15
BRANCH  14  17
ATOM     17  C   UNL     1      10.709   1.336   0.678  0.00  0.00    +0.000 C 
BRANCH  17  18
ATOM     18  C   UNL     1      10.601   1.531  -0.798  0.00  0.00    +0.000 C 
BRANCH  18  20
ATOM     19  C   UNL     1       9.553  -0.701  -1.205  0.00  0.00    +0.000 C 
ATOM     20  C   UNL     1       9.432   0.794  -1.401  0.00  0.00    +0.000 C 
ENDBRANCH  18  20
ENDBRANCH  17  18
ENDBRANCH  14  17
ENDBRANCH  13  14
ENDBRANCH   1  13
TORSDOF 9
ENDMDL
MODEL 8
REMARK VINA RESULT:      -4.4      1.569      3.424
REMARK  Name = s3_orig_f12_ligand
REMARK  12 active torsions:
REMARK  status: ('A' for Active; 'I' for Inactive)
REMARK    1  A    between atoms: C_1  and  C_2
REMARK    2  A    between atoms: C_2  and  C_3
REMARK    3  A    between atoms: C_3  and  C_4
REMARK    4  A    between atoms: C_4  and  C_5
REMARK    5  A    between atoms: C_5  and  C_6
REMARK    6  A    between atoms: C_5  and  O_8
REMARK    7  A    between atoms: C_6  and  C_7
REMARK    8  A    between atoms: O_8  and  C_9
REMARK    9  A    between atoms: C_9  and  C_11
REMARK   10  A    between atoms: C_12  and  C_13
REMARK   11  A    between atoms: C_16  and  O_17
REMARK   12  A    between atoms: O_17  and  C_18
REMARK                            x       y       z     vdW  Elec       q    Type
REMARK                         _______ _______ _______ _____ _____    ______ ____
ROOT
ATOM      1  C   UNL     1       9.357  -0.319  -0.512  0.00  0.00    +0.000 C 
ATOM      2  O   UNL     1       9.409  -1.468  -0.865  0.00  0.00    +0.000 OA
ENDROOT
BRANCH   1   3
ATOM      3  C   UNL     1       9.582   0.840  -1.407  0.00  0.00    +0.000 C 
ATOM      4  C   UNL     1      10.734   1.508  -1.419  0.00  0.00    +0.000 C 
BRANCH   4   5
ATOM      5  C   UNL     1      10.984   2.732  -2.219  0.00  0.00    +0.000 A 
ATOM      6  C   UNL     1       9.936   3.317  -2.909  0.00  0.00    +0.000 A 
ATOM      7  C   UNL     1      10.156   4.417  -3.731  0.00  0.00    +0.000 A 
ATOM      8  C   UNL     1      11.410   4.984  -3.828  0.00  0.00    +0.000 A 
ATOM      9  C   UNL     1      12.434   4.435  -3.102  0.00  0.00    +0.000 A 
ATOM     10  C   UNL     1      12.224   3.313  -2.301  0.00  0.00    +0.000 A 
BRANCH   8  11
ATOM     11  O   UNL     1      11.672   6.086  -4.617  0.00  0.00    +0.000 OA
ATOM     12  C   UNL     1      10.730   6.414  -5.621  0.00  0.00    +0.000 C 
ENDBRANCH   8  11
ENDBRANCH   4   5
ENDBRANCH   1   3
BRANCH   1  13
ATOM     13  O   UNL     1       9.133  -0.080   0.683  0.00  0.00    +0.000 OA
BRANCH  13  14
ATOM     14  C   UNL     1       9.039  -0.158   1.997  0.00  0.00    +0.000 C 
BRANCH  14  15
ATOM     15  C   UNL     1       8.589   1.172   2.569  0.00  0.00    +0.000 C 
ATOM     16  C   UNL     1       9.486   2.347   2.192  0.00  0.00    +0.000 C 
ENDBRANCH  14  15
BRANCH  14  17
ATOM     17  C   UNL     1       8.085  -1.260   2.428  0.00  0.00    +0.000 C 
BRANCH  17  18
ATOM     18  C   UNL     1       8.690  -2.309   3.303  0.00  0.00    +0.000 C 
BRANCH  18  20
ATOM     19  C   UNL     1       8.982  -3.992   1.478  0.00  0.00    +0.000 C 
ATOM     20  C   UNL     1       9.664  -3.192   2.566  0.00  0.00    +0.000 C 
ENDBRANCH  18  20
ENDBRANCH  17  18
ENDBRANCH  14  17
ENDBRANCH  13  14
ENDBRANCH   1  13
TORSDOF 9
ENDMDL
MODEL 9
REMARK VINA RESULT:      -4.3      0.807      2.781
REMARK  Name = s3_orig_f12_ligand
REMARK  12 active torsions:
REMARK  status: ('A' for Active; 'I' for Inactive)
REMARK    1  A    between atoms: C_1  and  C_2
REMARK    2  A    between atoms: C_2  and  C_3
REMARK    3  A    between atoms: C_3  and  C_4
REMARK    4  A    between atoms: C_4  and  C_5
REMARK    5  A    between atoms: C_5  and  C_6
REMARK    6  A    between atoms: C_5  and  O_8
REMARK    7  A    between atoms: C_6  and  C_7
REMARK    8  A    between atoms: O_8  and  C_9
REMARK    9  A    between atoms: C_9  and  C_11
REMARK   10  A    between atoms: C_12  and  C_13
REMARK   11  A    between atoms: C_16  and  O_17
REMARK   12  A    between atoms: O_17  and  C_18
REMARK                            x       y       z     vdW  Elec       q    Type
REMARK                         _______ _______ _______ _____ _____    ______ ____
ROOT
ATOM      1  C   UNL     1       9.099  -1.234   0.627  0.00  0.00    +0.000 C 
ATOM      2  O   UNL     1       8.994  -2.418   0.442  0.00  0.00    +0.000 OA
ENDROOT
BRANCH   1   3
ATOM      3  C   UNL     1       9.192  -0.225  -0.455  0.00  0.00    +0.000 C 
ATOM      4  C   UNL     1      10.156   0.692  -0.483  0.00  0.00    +0.000 C 
BRANCH   4   5
ATOM      5  C   UNL     1      10.244   1.785  -1.483  0.00  0.00    +0.000 A 
ATOM      6  C   UNL     1       9.125   2.112  -2.230  0.00  0.00    +0.000 A 
ATOM      7  C   UNL     1       9.199   3.075  -3.230  0.00  0.00    +0.000 A 
ATOM      8  C   UNL     1      10.370   3.768  -3.456  0.00  0.00    +0.000 A 
ATOM      9  C   UNL     1      11.461   3.478  -2.679  0.00  0.00    +0.000 A 
ATOM     10  C   UNL     1      11.400   2.491  -1.697  0.00  0.00    +0.000 A 
BRANCH   8  11
ATOM     11  O   UNL     1      10.486   4.744  -4.425  0.00  0.00    +0.000 OA
ATOM     12  C   UNL     1       9.313   5.443  -4.795  0.00  0.00    +0.000 C 
ENDBRANCH   8  11
ENDBRANCH   4   5
ENDBRANCH   1   3
BRANCH   1  13
ATOM     13  O   UNL     1       9.168  -0.824   1.794  0.00  0.00    +0.000 OA
BRANCH  13  14
ATOM     14  C   UNL     1       8.894  -0.503   3.045  0.00  0.00    +0.000 C 
BRANCH  14  15
ATOM     15  C   UNL     1       7.844   0.591   3.086  0.00  0.00    +0.000 C 
ATOM     16  C   UNL     1       8.355   1.961   2.654  0.00  0.00    +0.000 C 
ENDBRANCH  14  15
BRANCH  14  17
ATOM     17  C   UNL     1       8.426  -1.707   3.845  0.00  0.00    +0.000 C 
BRANCH  17  18
ATOM     18  C   UNL     1       9.007  -1.816   5.216  0.00  0.00    +0.000 C 
BRANCH  18  20
ATOM     19  C   UNL     1       7.099  -0.755   6.433  0.00  0.00    +0.000 C 
ATOM     20  C   UNL     1       7.956  -1.993   6.282  0.00  0.00    +0.000 C 
ENDBRANCH  18  20
ENDBRANCH  17  18
ENDBRANCH  14  17
ENDBRANCH  13  14
ENDBRANCH   1  13
TORSDOF 9
ENDMDL
