REMARK  Name = orig_f12_ligand
REMARK  12 active torsions:
REMARK  status: ('A' for Active; 'I' for Inactive)
REMARK    1  A    between atoms: C_1  and  C_2
REMARK    2  A    between atoms: C_2  and  C_3
REMARK    3  A    between atoms: C_3  and  C_4
REMARK    4  A    between atoms: C_4  and  C_5
REMARK    5  A    between atoms: C_5  and  C_6
REMARK    6  A    between atoms: C_5  and  O_8
REMARK    7  A    between atoms: C_6  and  C_7
REMARK    8  A    between atoms: O_8  and  C_9
REMARK    9  A    between atoms: C_9  and  C_11
REMARK   10  A    between atoms: C_12  and  C_13
REMARK   11  A    between atoms: C_16  and  O_17
REMARK   12  A    between atoms: O_17  and  C_18
REMARK                            x       y       z     vdW  Elec       q    Type
REMARK                         _______ _______ _______ _____ _____    ______ ____
ROOT
ATOM      1  C   UNL     1      -6.932  -1.553   5.419  0.00  0.00    +0.000 C 
ATOM      2  O   UNL     1      -6.955  -2.741   5.657  0.00  0.00    +0.000 OA
ENDROOT
BRANCH   1   3
ATOM      3  C   UNL     1      -8.123  -0.731   5.170  0.00  0.00    +0.000 C 
ATOM      4  C   UNL     1      -9.265  -1.326   4.808  0.00  0.00    +0.000 C 
BRANCH   4   5
ATOM      5  C   UNL     1     -10.468  -0.565   4.427  0.00  0.00    +0.000 A 
ATOM      6  C   UNL     1     -10.551   0.800   4.586  0.00  0.00    +0.000 A 
ATOM      7  C   UNL     1     -11.683   1.488   4.182  0.00  0.00    +0.000 A 
ATOM      8  C   UNL     1     -12.735   0.810   3.629  0.00  0.00    +0.000 A 
ATOM      9  C   UNL     1     -12.660  -0.560   3.463  0.00  0.00    +0.000 A 
ATOM     10  C   UNL     1     -11.526  -1.247   3.878  0.00  0.00    +0.000 A 
BRANCH   8  11
ATOM     11  O   UNL     1     -13.869   1.438   3.198  0.00  0.00    +0.000 OA
ATOM     12  C   UNL     1     -14.149   2.765   3.626  0.00  0.00    +0.000 C 
ENDBRANCH   8  11
ENDBRANCH   4   5
ENDBRANCH   1   3
BRANCH   1  13
ATOM     13  O   UNL     1      -5.806  -0.864   5.307  0.00  0.00    +0.000 OA
BRANCH  13  14
ATOM     14  C   UNL     1      -4.587  -1.557   5.181  0.00  0.00    +0.000 C 
BRANCH  14  15
ATOM     15  C   UNL     1      -3.947  -1.226   3.842  0.00  0.00    +0.000 C 
ATOM     16  C   UNL     1      -4.449   0.047   3.186  0.00  0.00    +0.000 C 
ENDBRANCH  14  15
BRANCH  14  17
ATOM     17  C   UNL     1      -3.684  -1.156   6.327  0.00  0.00    +0.000 C 
BRANCH  17  18
ATOM     18  C   UNL     1      -4.180  -1.589   7.668  0.00  0.00    +0.000 C 
BRANCH  18  20
ATOM     19  C   UNL     1      -3.714  -1.669  10.119  0.00  0.00    +0.000 C 
ATOM     20  C   UNL     1      -3.224  -1.214   8.765  0.00  0.00    +0.000 C 
ENDBRANCH  18  20
ENDBRANCH  17  18
ENDBRANCH  14  17
ENDBRANCH  13  14
ENDBRANCH   1  13
TORSDOF 9
