MODEL 1
REMARK VINA RESULT:      -3.4      0.000      0.000
REMARK  Name = orig_f12_ligand
REMARK  12 active torsions:
REMARK  status: ('A' for Active; 'I' for Inactive)
REMARK    1  A    between atoms: C_1  and  C_2
REMARK    2  A    between atoms: C_2  and  C_3
REMARK    3  A    between atoms: C_3  and  C_4
REMARK    4  A    between atoms: C_4  and  C_5
REMARK    5  A    between atoms: C_5  and  C_6
REMARK    6  A    between atoms: C_5  and  O_8
REMARK    7  A    between atoms: C_6  and  C_7
REMARK    8  A    between atoms: O_8  and  C_9
REMARK    9  A    between atoms: C_9  and  C_11
REMARK   10  A    between atoms: C_12  and  C_13
REMARK   11  A    between atoms: C_16  and  O_17
REMARK   12  A    between atoms: O_17  and  C_18
REMARK                            x       y       z     vdW  Elec       q    Type
REMARK                         _______ _______ _______ _____ _____    ______ ____
ROOT
ATOM      1  C   UNL     1      -2.121   4.584   8.657  0.00  0.00    +0.000 C 
ATOM      2  O   UNL     1      -1.127   4.001   9.031  0.00  0.00    +0.000 OA
ENDROOT
BRANCH   1   3
ATOM      3  C   UNL     1      -3.493   4.208   9.022  0.00  0.00    +0.000 C 
ATOM      4  C   UNL     1      -4.275   3.619   8.111  0.00  0.00    +0.000 C 
BRANCH   4   5
ATOM      5  C   UNL     1      -5.696   3.320   8.363  0.00  0.00    +0.000 A 
ATOM      6  C   UNL     1      -6.442   4.028   9.278  0.00  0.00    +0.000 A 
ATOM      7  C   UNL     1      -7.785   3.744   9.462  0.00  0.00    +0.000 A 
ATOM      8  C   UNL     1      -8.379   2.746   8.738  0.00  0.00    +0.000 A 
ATOM      9  C   UNL     1      -7.639   2.031   7.815  0.00  0.00    +0.000 A 
ATOM     10  C   UNL     1      -6.290   2.314   7.640  0.00  0.00    +0.000 A 
BRANCH   8  11
ATOM     11  O   UNL     1      -9.702   2.433   8.866  0.00  0.00    +0.000 OA
ATOM     12  C   UNL     1     -10.108   1.070   8.894  0.00  0.00    +0.000 C 
ENDBRANCH   8  11
ENDBRANCH   4   5
ENDBRANCH   1   3
BRANCH   1  13
ATOM     13  O   UNL     1      -2.081   5.611   7.822  0.00  0.00    +0.000 OA
BRANCH  13  14
ATOM     14  C   UNL     1      -1.920   6.911   8.340  0.00  0.00    +0.000 C 
BRANCH  14  15
ATOM     15  C   UNL     1      -0.627   7.514   7.815  0.00  0.00    +0.000 C 
ATOM     16  C   UNL     1      -0.030   6.809   6.611  0.00  0.00    +0.000 C 
ENDBRANCH  14  15
BRANCH  14  17
ATOM     17  C   UNL     1      -3.113   7.745   7.927  0.00  0.00    +0.000 C 
BRANCH  17  18
ATOM     18  C   UNL     1      -3.807   7.245   6.702  0.00  0.00    +0.000 C 
BRANCH  18  20
ATOM     19  C   UNL     1      -5.693   7.465   8.322  0.00  0.00    +0.000 C 
ATOM     20  C   UNL     1      -5.271   7.010   6.945  0.00  0.00    +0.000 C 
ENDBRANCH  18  20
ENDBRANCH  17  18
ENDBRANCH  14  17
ENDBRANCH  13  14
ENDBRANCH   1  13
TORSDOF 9
ENDMDL
MODEL 2
REMARK VINA RESULT:      -3.2      0.878      1.390
REMARK  Name = orig_f12_ligand
REMARK  12 active torsions:
REMARK  status: ('A' for Active; 'I' for Inactive)
REMARK    1  A    between atoms: C_1  and  C_2
REMARK    2  A    between atoms: C_2  and  C_3
REMARK    3  A    between atoms: C_3  and  C_4
REMARK    4  A    between atoms: C_4  and  C_5
REMARK    5  A    between atoms: C_5  and  C_6
REMARK    6  A    between atoms: C_5  and  O_8
REMARK    7  A    between atoms: C_6  and  C_7
REMARK    8  A    between atoms: O_8  and  C_9
REMARK    9  A    between atoms: C_9  and  C_11
REMARK   10  A    between atoms: C_12  and  C_13
REMARK   11  A    between atoms: C_16  and  O_17
REMARK   12  A    between atoms: O_17  and  C_18
REMARK                            x       y       z     vdW  Elec       q    Type
REMARK                         _______ _______ _______ _____ _____    ______ ____
ROOT
ATOM      1  C   UNL     1      -2.606   4.553   8.869  0.00  0.00    +0.000 C 
ATOM      2  O   UNL     1      -2.192   4.494  10.006  0.00  0.00    +0.000 OA
ENDROOT
BRANCH   1   3
ATOM      3  C   UNL     1      -3.782   3.827   8.372  0.00  0.00    +0.000 C 
ATOM      4  C   UNL     1      -4.985   4.097   8.890  0.00  0.00    +0.000 C 
BRANCH   4   5
ATOM      5  C   UNL     1      -6.192   3.332   8.531  0.00  0.00    +0.000 A 
ATOM      6  C   UNL     1      -6.179   2.361   7.554  0.00  0.00    +0.000 A 
ATOM      7  C   UNL     1      -7.323   1.635   7.268  0.00  0.00    +0.000 A 
ATOM      8  C   UNL     1      -8.481   1.886   7.951  0.00  0.00    +0.000 A 
ATOM      9  C   UNL     1      -8.504   2.857   8.935  0.00  0.00    +0.000 A 
ATOM     10  C   UNL     1      -7.356   3.589   9.212  0.00  0.00    +0.000 A 
BRANCH   8  11
ATOM     11  O   UNL     1      -9.635   1.191   7.723  0.00  0.00    +0.000 OA
ATOM     12  C   UNL     1      -9.571  -0.156   7.271  0.00  0.00    +0.000 C 
ENDBRANCH   8  11
ENDBRANCH   4   5
ENDBRANCH   1   3
BRANCH   1  13
ATOM     13  O   UNL     1      -2.003   5.253   7.920  0.00  0.00    +0.000 OA
BRANCH  13  14
ATOM     14  C   UNL     1      -1.750   6.622   8.133  0.00  0.00    +0.000 C 
BRANCH  14  15
ATOM     15  C   UNL     1      -0.772   7.130   7.086  0.00  0.00    +0.000 C 
ATOM     16  C   UNL     1       0.376   6.189   6.767  0.00  0.00    +0.000 C 
ENDBRANCH  14  15
BRANCH  14  17
ATOM     17  C   UNL     1      -3.062   7.372   8.058  0.00  0.00    +0.000 C 
BRANCH  17  18
ATOM     18  C   UNL     1      -3.682   7.372   6.699  0.00  0.00    +0.000 C 
BRANCH  18  20
ATOM     19  C   UNL     1      -5.759   7.532   8.074  0.00  0.00    +0.000 C 
ATOM     20  C   UNL     1      -5.158   7.098   6.758  0.00  0.00    +0.000 C 
ENDBRANCH  18  20
ENDBRANCH  17  18
ENDBRANCH  14  17
ENDBRANCH  13  14
ENDBRANCH   1  13
TORSDOF 9
ENDMDL
MODEL 3
REMARK VINA RESULT:      -3.2      1.259      1.572
REMARK  Name = orig_f12_ligand
REMARK  12 active torsions:
REMARK  status: ('A' for Active; 'I' for Inactive)
REMARK    1  A    between atoms: C_1  and  C_2
REMARK    2  A    between atoms: C_2  and  C_3
REMARK    3  A    between atoms: C_3  and  C_4
REMARK    4  A    between atoms: C_4  and  C_5
REMARK    5  A    between atoms: C_5  and  C_6
REMARK    6  A    between atoms: C_5  and  O_8
REMARK    7  A    between atoms: C_6  and  C_7
REMARK    8  A    between atoms: O_8  and  C_9
REMARK    9  A    between atoms: C_9  and  C_11
REMARK   10  A    between atoms: C_12  and  C_13
REMARK   11  A    between atoms: C_16  and  O_17
REMARK   12  A    between atoms: O_17  and  C_18
REMARK                            x       y       z     vdW  Elec       q    Type
REMARK                         _______ _______ _______ _____ _____    ______ ____
ROOT
ATOM      1  C   UNL     1      -2.232   5.285   8.688  0.00  0.00    +0.000 C 
ATOM      2  O   UNL     1      -1.436   5.454   9.586  0.00  0.00    +0.000 OA
ENDROOT
BRANCH   1   3
ATOM      3  C   UNL     1      -3.337   4.319   8.725  0.00  0.00    +0.000 C 
ATOM      4  C   UNL     1      -4.546   4.690   8.290  0.00  0.00    +0.000 C 
BRANCH   4   5
ATOM      5  C   UNL     1      -5.730   3.820   8.404  0.00  0.00    +0.000 A 
ATOM      6  C   UNL     1      -6.806   4.149   9.196  0.00  0.00    +0.000 A 
ATOM      7  C   UNL     1      -7.919   3.325   9.250  0.00  0.00    +0.000 A 
ATOM      8  C   UNL     1      -7.950   2.169   8.519  0.00  0.00    +0.000 A 
ATOM      9  C   UNL     1      -6.875   1.831   7.719  0.00  0.00    +0.000 A 
ATOM     10  C   UNL     1      -5.758   2.656   7.675  0.00  0.00    +0.000 A 
BRANCH   8  11
ATOM     11  O   UNL     1      -9.026   1.327   8.521  0.00  0.00    +0.000 OA
ATOM     12  C   UNL     1      -8.970   0.107   7.793  0.00  0.00    +0.000 C 
ENDBRANCH   8  11
ENDBRANCH   4   5
ENDBRANCH   1   3
BRANCH   1  13
ATOM     13  O   UNL     1      -2.160   5.932   7.533  0.00  0.00    +0.000 OA
BRANCH  13  14
ATOM     14  C   UNL     1      -1.564   7.206   7.497  0.00  0.00    +0.000 C 
BRANCH  14  15
ATOM     15  C   UNL     1      -0.388   7.192   6.533  0.00  0.00    +0.000 C 
ATOM     16  C   UNL     1      -0.041   8.537   5.921  0.00  0.00    +0.000 C 
ENDBRANCH  14  15
BRANCH  14  17
ATOM     17  C   UNL     1      -2.606   8.214   7.065  0.00  0.00    +0.000 C 
BRANCH  17  18
ATOM     18  C   UNL     1      -3.735   7.622   6.286  0.00  0.00    +0.000 C 
BRANCH  18  20
ATOM     19  C   UNL     1      -3.452   9.633   4.835  0.00  0.00    +0.000 C 
ATOM     20  C   UNL     1      -3.792   8.162   4.886  0.00  0.00    +0.000 C 
ENDBRANCH  18  20
ENDBRANCH  17  18
ENDBRANCH  14  17
ENDBRANCH  13  14
ENDBRANCH   1  13
TORSDOF 9
ENDMDL
MODEL 4
REMARK VINA RESULT:      -3.2      3.528      5.863
REMARK  Name = orig_f12_ligand
REMARK  12 active torsions:
REMARK  status: ('A' for Active; 'I' for Inactive)
REMARK    1  A    between atoms: C_1  and  C_2
REMARK    2  A    between atoms: C_2  and  C_3
REMARK    3  A    between atoms: C_3  and  C_4
REMARK    4  A    between atoms: C_4  and  C_5
REMARK    5  A    between atoms: C_5  and  C_6
REMARK    6  A    between atoms: C_5  and  O_8
REMARK    7  A    between atoms: C_6  and  C_7
REMARK    8  A    between atoms: O_8  and  C_9
REMARK    9  A    between atoms: C_9  and  C_11
REMARK   10  A    between atoms: C_12  and  C_13
REMARK   11  A    between atoms: C_16  and  O_17
REMARK   12  A    between atoms: O_17  and  C_18
REMARK                            x       y       z     vdW  Elec       q    Type
REMARK                         _______ _______ _______ _____ _____    ______ ____
ROOT
ATOM      1  C   UNL     1      -2.547   4.695   9.073  0.00  0.00    +0.000 C 
ATOM      2  O   UNL     1      -3.312   4.226   9.887  0.00  0.00    +0.000 OA
ENDROOT
BRANCH   1   3
ATOM      3  C   UNL     1      -2.854   5.839   8.205  0.00  0.00    +0.000 C 
ATOM      4  C   UNL     1      -4.111   6.028   7.791  0.00  0.00    +0.000 C 
BRANCH   4   5
ATOM      5  C   UNL     1      -4.478   7.080   6.827  0.00  0.00    +0.000 A 
ATOM      6  C   UNL     1      -3.599   7.533   5.869  0.00  0.00    +0.000 A 
ATOM      7  C   UNL     1      -3.990   8.497   4.955  0.00  0.00    +0.000 A 
ATOM      8  C   UNL     1      -5.256   9.014   5.004  0.00  0.00    +0.000 A 
ATOM      9  C   UNL     1      -6.146   8.564   5.960  0.00  0.00    +0.000 A 
ATOM     10  C   UNL     1      -5.747   7.603   6.881  0.00  0.00    +0.000 A 
BRANCH   8  11
ATOM     11  O   UNL     1      -5.701   9.954   4.118  0.00  0.00    +0.000 OA
ATOM     12  C   UNL     1      -4.860  10.375   3.051  0.00  0.00    +0.000 C 
ENDBRANCH   8  11
ENDBRANCH   4   5
ENDBRANCH   1   3
BRANCH   1  13
ATOM     13  O   UNL     1      -1.346   4.186   8.838  0.00  0.00    +0.000 OA
BRANCH  13  14
ATOM     14  C   UNL     1      -0.214   4.816   9.390  0.00  0.00    +0.000 C 
BRANCH  14  15
ATOM     15  C   UNL     1       0.427   3.903  10.423  0.00  0.00    +0.000 C 
ATOM     16  C   UNL     1       0.079   4.220  11.866  0.00  0.00    +0.000 C 
ENDBRANCH  14  15
BRANCH  14  17
ATOM     17  C   UNL     1       0.754   5.133   8.271  0.00  0.00    +0.000 C 
BRANCH  17  18
ATOM     18  C   UNL     1       0.754   6.569   7.859  0.00  0.00    +0.000 C 
BRANCH  18  20
ATOM     19  C   UNL     1       0.004   8.185   6.111  0.00  0.00    +0.000 C 
ATOM     20  C   UNL     1       0.308   6.741   6.435  0.00  0.00    +0.000 C 
ENDBRANCH  18  20
ENDBRANCH  17  18
ENDBRANCH  14  17
ENDBRANCH  13  14
ENDBRANCH   1  13
TORSDOF 9
ENDMDL
MODEL 5
REMARK VINA RESULT:      -3.2      1.567      2.156
REMARK  Name = orig_f12_ligand
REMARK  12 active torsions:
REMARK  status: ('A' for Active; 'I' for Inactive)
REMARK    1  A    between atoms: C_1  and  C_2
REMARK    2  A    between atoms: C_2  and  C_3
REMARK    3  A    between atoms: C_3  and  C_4
REMARK    4  A    between atoms: C_4  and  C_5
REMARK    5  A    between atoms: C_5  and  C_6
REMARK    6  A    between atoms: C_5  and  O_8
REMARK    7  A    between atoms: C_6  and  C_7
REMARK    8  A    between atoms: O_8  and  C_9
REMARK    9  A    between atoms: C_9  and  C_11
REMARK   10  A    between atoms: C_12  and  C_13
REMARK   11  A    between atoms: C_16  and  O_17
REMARK   12  A    between atoms: O_17  and  C_18
REMARK                            x       y       z     vdW  Elec       q    Type
REMARK                         _______ _______ _______ _____ _____    ______ ____
ROOT
ATOM      1  C   UNL     1      -2.858   6.466   8.319  0.00  0.00    +0.000 C 
ATOM      2  O   UNL     1      -2.305   7.155   9.149  0.00  0.00    +0.000 OA
ENDROOT
BRANCH   1   3
ATOM      3  C   UNL     1      -3.675   5.286   8.628  0.00  0.00    +0.000 C 
ATOM      4  C   UNL     1      -4.826   5.097   7.972  0.00  0.00    +0.000 C 
BRANCH   4   5
ATOM      5  C   UNL     1      -5.757   4.005   8.306  0.00  0.00    +0.000 A 
ATOM      6  C   UNL     1      -5.603   2.733   7.803  0.00  0.00    +0.000 A 
ATOM      7  C   UNL     1      -6.476   1.721   8.167  0.00  0.00    +0.000 A 
ATOM      8  C   UNL     1      -7.508   1.984   9.026  0.00  0.00    +0.000 A 
ATOM      9  C   UNL     1      -7.669   3.258   9.539  0.00  0.00    +0.000 A 
ATOM     10  C   UNL     1      -6.797   4.271   9.163  0.00  0.00    +0.000 A 
BRANCH   8  11
ATOM     11  O   UNL     1      -8.388   1.023   9.433  0.00  0.00    +0.000 OA
ATOM     12  C   UNL     1      -9.608   0.835   8.726  0.00  0.00    +0.000 C 
ENDBRANCH   8  11
ENDBRANCH   4   5
ENDBRANCH   1   3
BRANCH   1  13
ATOM     13  O   UNL     1      -2.743   6.679   7.017  0.00  0.00    +0.000 OA
BRANCH  13  14
ATOM     14  C   UNL     1      -2.985   7.969   6.507  0.00  0.00    +0.000 C 
BRANCH  14  15
ATOM     15  C   UNL     1      -1.683   8.575   6.010  0.00  0.00    +0.000 C 
ATOM     16  C   UNL     1      -1.815   9.943   5.365  0.00  0.00    +0.000 C 
ENDBRANCH  14  15
BRANCH  14  17
ATOM     17  C   UNL     1      -3.996   7.862   5.386  0.00  0.00    +0.000 C 
BRANCH  17  18
ATOM     18  C   UNL     1      -5.404   8.118   5.815  0.00  0.00    +0.000 C 
BRANCH  18  20
ATOM     19  C   UNL     1      -6.567   8.355   8.011  0.00  0.00    +0.000 C 
ATOM     20  C   UNL     1      -5.465   8.868   7.115  0.00  0.00    +0.000 C 
ENDBRANCH  18  20
ENDBRANCH  17  18
ENDBRANCH  14  17
ENDBRANCH  13  14
ENDBRANCH   1  13
TORSDOF 9
ENDMDL
MODEL 6
REMARK VINA RESULT:      -3.1      1.782      2.911
REMARK  Name = orig_f12_ligand
REMARK  12 active torsions:
REMARK  status: ('A' for Active; 'I' for Inactive)
REMARK    1  A    between atoms: C_1  and  C_2
REMARK    2  A    between atoms: C_2  and  C_3
REMARK    3  A    between atoms: C_3  and  C_4
REMARK    4  A    between atoms: C_4  and  C_5
REMARK    5  A    between atoms: C_5  and  C_6
REMARK    6  A    between atoms: C_5  and  O_8
REMARK    7  A    between atoms: C_6  and  C_7
REMARK    8  A    between atoms: O_8  and  C_9
REMARK    9  A    between atoms: C_9  and  C_11
REMARK   10  A    between atoms: C_12  and  C_13
REMARK   11  A    between atoms: C_16  and  O_17
REMARK   12  A    between atoms: O_17  and  C_18
REMARK                            x       y       z     vdW  Elec       q    Type
REMARK                         _______ _______ _______ _____ _____    ______ ____
ROOT
ATOM      1  C   UNL     1      -3.803   7.416   6.266  0.00  0.00    +0.000 C 
ATOM      2  O   UNL     1      -3.804   7.466   5.055  0.00  0.00    +0.000 OA
ENDROOT
BRANCH   1   3
ATOM      3  C   UNL     1      -4.880   6.832   7.075  0.00  0.00    +0.000 C 
ATOM      4  C   UNL     1      -4.666   5.677   7.715  0.00  0.00    +0.000 C 
BRANCH   4   5
ATOM      5  C   UNL     1      -5.731   4.970   8.449  0.00  0.00    +0.000 A 
ATOM      6  C   UNL     1      -6.581   5.622   9.313  0.00  0.00    +0.000 A 
ATOM      7  C   UNL     1      -7.594   4.932   9.958  0.00  0.00    +0.000 A 
ATOM      8  C   UNL     1      -7.750   3.589   9.745  0.00  0.00    +0.000 A 
ATOM      9  C   UNL     1      -6.903   2.927   8.877  0.00  0.00    +0.000 A 
ATOM     10  C   UNL     1      -5.883   3.621   8.240  0.00  0.00    +0.000 A 
BRANCH   8  11
ATOM     11  O   UNL     1      -8.741   2.861  10.340  0.00  0.00    +0.000 OA
ATOM     12  C   UNL     1      -8.711   1.441  10.278  0.00  0.00    +0.000 C 
ENDBRANCH   8  11
ENDBRANCH   4   5
ENDBRANCH   1   3
BRANCH   1  13
ATOM     13  O   UNL     1      -2.835   7.936   7.006  0.00  0.00    +0.000 OA
BRANCH  13  14
ATOM     14  C   UNL     1      -1.531   7.417   6.895  0.00  0.00    +0.000 C 
BRANCH  14  15
ATOM     15  C   UNL     1      -0.557   8.543   6.585  0.00  0.00    +0.000 C 
ATOM     16  C   UNL     1       0.631   8.148   5.728  0.00  0.00    +0.000 C 
ENDBRANCH  14  15
BRANCH  14  17
ATOM     17  C   UNL     1      -1.172   6.732   8.195  0.00  0.00    +0.000 C 
BRANCH  17  18
ATOM     18  C   UNL     1      -1.033   5.249   8.080  0.00  0.00    +0.000 C 
BRANCH  18  20
ATOM     19  C   UNL     1      -2.142   5.493  10.302  0.00  0.00    +0.000 C 
ATOM     20  C   UNL     1      -1.478   4.547   9.331  0.00  0.00    +0.000 C 
ENDBRANCH  18  20
ENDBRANCH  17  18
ENDBRANCH  14  17
ENDBRANCH  13  14
ENDBRANCH   1  13
TORSDOF 9
ENDMDL
MODEL 7
REMARK VINA RESULT:      -3.1      3.414      4.283
REMARK  Name = orig_f12_ligand
REMARK  12 active torsions:
REMARK  status: ('A' for Active; 'I' for Inactive)
REMARK    1  A    between atoms: C_1  and  C_2
REMARK    2  A    between atoms: C_2  and  C_3
REMARK    3  A    between atoms: C_3  and  C_4
REMARK    4  A    between atoms: C_4  and  C_5
REMARK    5  A    between atoms: C_5  and  C_6
REMARK    6  A    between atoms: C_5  and  O_8
REMARK    7  A    between atoms: C_6  and  C_7
REMARK    8  A    between atoms: O_8  and  C_9
REMARK    9  A    between atoms: C_9  and  C_11
REMARK   10  A    between atoms: C_12  and  C_13
REMARK   11  A    between atoms: C_16  and  O_17
REMARK   12  A    between atoms: O_17  and  C_18
REMARK                            x       y       z     vdW  Elec       q    Type
REMARK                         _______ _______ _______ _____ _____    ______ ____
ROOT
ATOM      1  C   UNL     1      -2.129   5.037   8.446  0.00  0.00    +0.000 C 
ATOM      2  O   UNL     1      -1.981   4.032   9.108  0.00  0.00    +0.000 OA
ENDROOT
BRANCH   1   3
ATOM      3  C   UNL     1      -3.286   5.935   8.545  0.00  0.00    +0.000 C 
ATOM      4  C   UNL     1      -4.141   6.017   7.520  0.00  0.00    +0.000 C 
BRANCH   4   5
ATOM      5  C   UNL     1      -5.257   6.979   7.494  0.00  0.00    +0.000 A 
ATOM      6  C   UNL     1      -5.516   7.771   6.398  0.00  0.00    +0.000 A 
ATOM      7  C   UNL     1      -6.596   8.637   6.395  0.00  0.00    +0.000 A 
ATOM      8  C   UNL     1      -7.411   8.718   7.491  0.00  0.00    +0.000 A 
ATOM      9  C   UNL     1      -7.162   7.926   8.595  0.00  0.00    +0.000 A 
ATOM     10  C   UNL     1      -6.071   7.065   8.597  0.00  0.00    +0.000 A 
BRANCH   8  11
ATOM     11  O   UNL     1      -8.500   9.542   7.537  0.00  0.00    +0.000 OA
ATOM     12  C   UNL     1      -9.597   9.219   8.383  0.00  0.00    +0.000 C 
ENDBRANCH   8  11
ENDBRANCH   4   5
ENDBRANCH   1   3
BRANCH   1  13
ATOM     13  O   UNL     1      -1.272   5.413   7.509  0.00  0.00    +0.000 OA
BRANCH  13  14
ATOM     14  C   UNL     1      -0.402   6.490   7.768  0.00  0.00    +0.000 C 
BRANCH  14  15
ATOM     15  C   UNL     1       0.930   5.961   8.274  0.00  0.00    +0.000 C 
ATOM     16  C   UNL     1       1.893   5.503   7.194  0.00  0.00    +0.000 C 
ENDBRANCH  14  15
BRANCH  14  17
ATOM     17  C   UNL     1      -0.221   7.281   6.490  0.00  0.00    +0.000 C 
BRANCH  17  18
ATOM     18  C   UNL     1      -1.450   8.006   6.049  0.00  0.00    +0.000 C 
BRANCH  18  20
ATOM     19  C   UNL     1      -2.515   9.530   7.715  0.00  0.00    +0.000 C 
ATOM     20  C   UNL     1      -1.503   9.403   6.601  0.00  0.00    +0.000 C 
ENDBRANCH  18  20
ENDBRANCH  17  18
ENDBRANCH  14  17
ENDBRANCH  13  14
ENDBRANCH   1  13
TORSDOF 9
ENDMDL
MODEL 8
REMARK VINA RESULT:      -3.0      1.329      1.796
REMARK  Name = orig_f12_ligand
REMARK  12 active torsions:
REMARK  status: ('A' for Active; 'I' for Inactive)
REMARK    1  A    between atoms: C_1  and  C_2
REMARK    2  A    between atoms: C_2  and  C_3
REMARK    3  A    between atoms: C_3  and  C_4
REMARK    4  A    between atoms: C_4  and  C_5
REMARK    5  A    between atoms: C_5  and  C_6
REMARK    6  A    between atoms: C_5  and  O_8
REMARK    7  A    between atoms: C_6  and  C_7
REMARK    8  A    between atoms: O_8  and  C_9
REMARK    9  A    between atoms: C_9  and  C_11
REMARK   10  A    between atoms: C_12  and  C_13
REMARK   11  A    between atoms: C_16  and  O_17
REMARK   12  A    between atoms: O_17  and  C_18
REMARK                            x       y       z     vdW  Elec       q    Type
REMARK                         _______ _______ _______ _____ _____    ______ ____
ROOT
ATOM      1  C   UNL     1      -2.750   4.709   9.191  0.00  0.00    +0.000 C 
ATOM      2  O   UNL     1      -2.289   4.405  10.269  0.00  0.00    +0.000 OA
ENDROOT
BRANCH   1   3
ATOM      3  C   UNL     1      -3.890   4.038   8.554  0.00  0.00    +0.000 C 
ATOM      4  C   UNL     1      -5.069   4.008   9.185  0.00  0.00    +0.000 C 
BRANCH   4   5
ATOM      5  C   UNL     1      -6.225   3.255   8.668  0.00  0.00    +0.000 A 
ATOM      6  C   UNL     1      -7.492   3.415   9.183  0.00  0.00    +0.000 A 
ATOM      7  C   UNL     1      -8.562   2.718   8.647  0.00  0.00    +0.000 A 
ATOM      8  C   UNL     1      -8.364   1.855   7.604  0.00  0.00    +0.000 A 
ATOM      9  C   UNL     1      -7.097   1.690   7.079  0.00  0.00    +0.000 A 
ATOM     10  C   UNL     1      -6.024   2.384   7.626  0.00  0.00    +0.000 A 
BRANCH   8  11
ATOM     11  O   UNL     1      -9.385   1.154   7.026  0.00  0.00    +0.000 OA
ATOM     12  C   UNL     1      -9.333  -0.266   6.985  0.00  0.00    +0.000 C 
ENDBRANCH   8  11
ENDBRANCH   4   5
ENDBRANCH   1   3
BRANCH   1  13
ATOM     13  O   UNL     1      -2.236   5.667   8.434  0.00  0.00    +0.000 OA
BRANCH  13  14
ATOM     14  C   UNL     1      -2.928   6.886   8.305  0.00  0.00    +0.000 C 
BRANCH  14  15
ATOM     15  C   UNL     1      -2.446   7.862   9.366  0.00  0.00    +0.000 C 
ATOM     16  C   UNL     1      -3.416   8.100  10.509  0.00  0.00    +0.000 C 
ENDBRANCH  14  15
BRANCH  14  17
ATOM     17  C   UNL     1      -2.685   7.433   6.915  0.00  0.00    +0.000 C 
BRANCH  17  18
ATOM     18  C   UNL     1      -3.929   7.606   6.107  0.00  0.00    +0.000 C 
BRANCH  18  20
ATOM     19  C   UNL     1      -6.200   8.165   6.980  0.00  0.00    +0.000 C 
ATOM     20  C   UNL     1      -5.142   7.097   6.833  0.00  0.00    +0.000 C 
ENDBRANCH  18  20
ENDBRANCH  17  18
ENDBRANCH  14  17
ENDBRANCH  13  14
ENDBRANCH   1  13
TORSDOF 9
ENDMDL
MODEL 9
REMARK VINA RESULT:      -2.9      1.598      3.337
REMARK  Name = orig_f12_ligand
REMARK  12 active torsions:
REMARK  status: ('A' for Active; 'I' for Inactive)
REMARK    1  A    between atoms: C_1  and  C_2
REMARK    2  A    between atoms: C_2  and  C_3
REMARK    3  A    between atoms: C_3  and  C_4
REMARK    4  A    between atoms: C_4  and  C_5
REMARK    5  A    between atoms: C_5  and  C_6
REMARK    6  A    between atoms: C_5  and  O_8
REMARK    7  A    between atoms: C_6  and  C_7
REMARK    8  A    between atoms: O_8  and  C_9
REMARK    9  A    between atoms: C_9  and  C_11
REMARK   10  A    between atoms: C_12  and  C_13
REMARK   11  A    between atoms: C_16  and  O_17
REMARK   12  A    between atoms: O_17  and  C_18
REMARK                            x       y       z     vdW  Elec       q    Type
REMARK                         _______ _______ _______ _____ _____    ______ ____
ROOT
ATOM      1  C   UNL     1      -4.043   6.953   7.689  0.00  0.00    +0.000 C 
ATOM      2  O   UNL     1      -4.339   7.990   8.242  0.00  0.00    +0.000 OA
ENDROOT
BRANCH   1   3
ATOM      3  C   UNL     1      -4.943   5.803   7.541  0.00  0.00    +0.000 C 
ATOM      4  C   UNL     1      -5.319   5.121   8.629  0.00  0.00    +0.000 C 
BRANCH   4   5
ATOM      5  C   UNL     1      -6.122   3.888   8.552  0.00  0.00    +0.000 A 
ATOM      6  C   UNL     1      -5.735   2.809   7.790  0.00  0.00    +0.000 A 
ATOM      7  C   UNL     1      -6.496   1.652   7.771  0.00  0.00    +0.000 A 
ATOM      8  C   UNL     1      -7.648   1.578   8.506  0.00  0.00    +0.000 A 
ATOM      9  C   UNL     1      -8.043   2.656   9.276  0.00  0.00    +0.000 A 
ATOM     10  C   UNL     1      -7.282   3.817   9.284  0.00  0.00    +0.000 A 
BRANCH   8  11
ATOM     11  O   UNL     1      -8.429   0.458   8.538  0.00  0.00    +0.000 OA
ATOM     12  C   UNL     1      -8.662  -0.277   7.342  0.00  0.00    +0.000 C 
ENDBRANCH   8  11
ENDBRANCH   4   5
ENDBRANCH   1   3
BRANCH   1  13
ATOM     13  O   UNL     1      -2.836   6.722   7.192  0.00  0.00    +0.000 OA
BRANCH  13  14
ATOM     14  C   UNL     1      -1.730   6.690   8.063  0.00  0.00    +0.000 C 
BRANCH  14  15
ATOM     15  C   UNL     1      -1.120   5.297   8.062  0.00  0.00    +0.000 C 
ATOM     16  C   UNL     1      -1.543   4.409   9.219  0.00  0.00    +0.000 C 
ENDBRANCH  14  15
BRANCH  14  17
ATOM     17  C   UNL     1      -0.724   7.722   7.603  0.00  0.00    +0.000 C 
BRANCH  17  18
ATOM     18  C   UNL     1      -0.672   7.896   6.120  0.00  0.00    +0.000 C 
BRANCH  18  20
ATOM     19  C   UNL     1       1.644   8.373   5.319  0.00  0.00    +0.000 C 
ATOM     20  C   UNL     1       0.311   8.960   5.717  0.00  0.00    +0.000 C 
ENDBRANCH  18  20
ENDBRANCH  17  18
ENDBRANCH  14  17
ENDBRANCH  13  14
ENDBRANCH   1  13
TORSDOF 9
ENDMDL
