REMARK  Name = bgox31_5_ligand
REMARK  5 active torsions:
REMARK  status: ('A' for Active; 'I' for Inactive)
REMARK    1  A    between atoms: C_1  and  O_2
REMARK    2  A    between atoms: O_2  and  C_3
REMARK    3  A    between atoms: C_6  and  C_7
REMARK    4  A    between atoms: C_7  and  C_9
REMARK    5  A    between atoms: C_15  and  O_16
REMARK                            x       y       z     vdW  Elec       q    Type
REMARK                         _______ _______ _______ _____ _____    ______ ____
ROOT
ATOM      1  C   UNL     1       4.790   8.621  -7.282  0.00  0.00    +0.000 A 
ATOM      2  C   UNL     1       5.812   7.736  -7.144  0.00  0.00    +0.000 A 
ATOM      3  C   UNL     1       5.705   6.699  -6.193  0.00  0.00    +0.000 A 
ATOM      4  C   UNL     1       4.604   6.546  -5.375  0.00  0.00    +0.000 A 
ATOM      5  C   UNL     1       3.563   7.461  -5.508  0.00  0.00    +0.000 A 
ATOM      6  C   UNL     1       3.656   8.511  -6.462  0.00  0.00    +0.000 A 
ENDROOT
BRANCH   1   8
ATOM      7  C   UNL     1       4.250  10.832  -8.356  0.00  0.00    +0.000 C 
ATOM      8  O   UNL     1       5.056   9.621  -8.283  0.00  0.00    +0.000 OA
ENDBRANCH   1   8
BRANCH   4   9
ATOM      9  C   UNL     1       4.572   5.474  -4.410  0.00  0.00    +0.000 C 
ATOM     10  O   UNL     1       3.808   5.571  -3.441  0.00  0.00    +0.000 OA
BRANCH   9  11
ATOM     11  C   UNL     1       5.523   4.324  -4.524  0.00  0.00    +0.000 A 
ATOM     12  C   UNL     1       6.402   3.934  -3.528  0.00  0.00    +0.000 A 
ATOM     13  C   UNL     1       7.282   2.832  -3.706  0.00  0.00    +0.000 A 
ATOM     14  C   UNL     1       7.297   2.098  -4.854  0.00  0.00    +0.000 A 
ATOM     15  C   UNL     1       6.422   2.437  -5.858  0.00  0.00    +0.000 A 
ATOM     16  C   UNL     1       5.575   3.557  -5.686  0.00  0.00    +0.000 A 
ENDBRANCH   9  11
ENDBRANCH   4   9
BRANCH   5  17
ATOM     17  O   UNL     1       2.460   7.335  -4.731  0.00  0.00    +0.000 OA
ATOM     18  H   UNL     1       1.715   7.982  -4.819  0.00  0.00    +0.000 HD
ENDBRANCH   5  17
TORSDOF 4
