MODEL 1
REMARK VINA RESULT:      -5.2      0.000      0.000
REMARK  Name = bgox31_5_ligand
REMARK  5 active torsions:
REMARK  status: ('A' for Active; 'I' for Inactive)
REMARK    1  A    between atoms: C_1  and  O_2
REMARK    2  A    between atoms: O_2  and  C_3
REMARK    3  A    between atoms: C_6  and  C_7
REMARK    4  A    between atoms: C_7  and  C_9
REMARK    5  A    between atoms: C_15  and  O_16
REMARK                            x       y       z     vdW  Elec       q    Type
REMARK                         _______ _______ _______ _____ _____    ______ ____
ROOT
ATOM      1  C   UNL     1      10.934   3.502   2.580  0.00  0.00    +0.000 A 
ATOM      2  C   UNL     1      10.151   4.252   1.762  0.00  0.00    +0.000 A 
ATOM      3  C   UNL     1       9.030   3.659   1.142  0.00  0.00    +0.000 A 
ATOM      4  C   UNL     1       8.694   2.332   1.318  0.00  0.00    +0.000 A 
ATOM      5  C   UNL     1       9.505   1.561   2.146  0.00  0.00    +0.000 A 
ATOM      6  C   UNL     1      10.637   2.144   2.778  0.00  0.00    +0.000 A 
ENDROOT
BRANCH   1   8
ATOM      7  C   UNL     1      12.210   4.375   4.566  0.00  0.00    +0.000 C 
ATOM      8  O   UNL     1      12.039   4.247   3.125  0.00  0.00    +0.000 OA
ENDBRANCH   1   8
BRANCH   4   9
ATOM      9  C   UNL     1       7.546   1.788   0.636  0.00  0.00    +0.000 C 
ATOM     10  O   UNL     1       6.811   1.001   1.247  0.00  0.00    +0.000 OA
BRANCH   9  11
ATOM     11  C   UNL     1       7.315   2.084  -0.813  0.00  0.00    +0.000 A 
ATOM     12  C   UNL     1       8.094   1.592  -1.846  0.00  0.00    +0.000 A 
ATOM     13  C   UNL     1       7.818   1.919  -3.202  0.00  0.00    +0.000 A 
ATOM     14  C   UNL     1       6.772   2.717  -3.555  0.00  0.00    +0.000 A 
ATOM     15  C   UNL     1       5.959   3.206  -2.560  0.00  0.00    +0.000 A 
ATOM     16  C   UNL     1       6.261   2.905  -1.211  0.00  0.00    +0.000 A 
ENDBRANCH   9  11
ENDBRANCH   4   9
BRANCH   5  17
ATOM     17  O   UNL     1       9.199   0.257   2.353  0.00  0.00    +0.000 OA
ATOM     18  H   UNL     1       8.263  -0.010   2.533  0.00  0.00    +0.000 HD
ENDBRANCH   5  17
TORSDOF 4
ENDMDL
MODEL 2
REMARK VINA RESULT:      -4.9      1.983      5.903
REMARK  Name = bgox31_5_ligand
REMARK  5 active torsions:
REMARK  status: ('A' for Active; 'I' for Inactive)
REMARK    1  A    between atoms: C_1  and  O_2
REMARK    2  A    between atoms: O_2  and  C_3
REMARK    3  A    between atoms: C_6  and  C_7
REMARK    4  A    between atoms: C_7  and  C_9
REMARK    5  A    between atoms: C_15  and  O_16
REMARK                            x       y       z     vdW  Elec       q    Type
REMARK                         _______ _______ _______ _____ _____    ______ ____
ROOT
ATOM      1  C   UNL     1       6.776   2.935  -3.594  0.00  0.00    +0.000 A 
ATOM      2  C   UNL     1       6.087   3.439  -2.537  0.00  0.00    +0.000 A 
ATOM      3  C   UNL     1       6.383   2.979  -1.236  0.00  0.00    +0.000 A 
ATOM      4  C   UNL     1       7.342   2.019  -0.983  0.00  0.00    +0.000 A 
ATOM      5  C   UNL     1       8.039   1.495  -2.068  0.00  0.00    +0.000 A 
ATOM      6  C   UNL     1       7.752   1.948  -3.384  0.00  0.00    +0.000 A 
ENDROOT
BRANCH   1   8
ATOM      7  C   UNL     1       6.381   4.937  -5.067  0.00  0.00    +0.000 C 
ATOM      8  O   UNL     1       6.351   3.497  -4.849  0.00  0.00    +0.000 OA
ENDBRANCH   1   8
BRANCH   4   9
ATOM      9  C   UNL     1       7.577   1.581   0.372  0.00  0.00    +0.000 C 
ATOM     10  O   UNL     1       6.734   0.857   0.916  0.00  0.00    +0.000 OA
BRANCH   9  11
ATOM     11  C   UNL     1       8.763   2.084   1.135  0.00  0.00    +0.000 A 
ATOM     12  C   UNL     1       9.452   1.347   2.082  0.00  0.00    +0.000 A 
ATOM     13  C   UNL     1      10.570   1.890   2.774  0.00  0.00    +0.000 A 
ATOM     14  C   UNL     1      11.026   3.151   2.531  0.00  0.00    +0.000 A 
ATOM     15  C   UNL     1      10.384   3.906   1.580  0.00  0.00    +0.000 A 
ATOM     16  C   UNL     1       9.251   3.371   0.922  0.00  0.00    +0.000 A 
ENDBRANCH   9  11
ENDBRANCH   4   9
BRANCH   5  17
ATOM     17  O   UNL     1       8.997   0.560  -1.857  0.00  0.00    +0.000 OA
ATOM     18  H   UNL     1       9.736   0.741  -1.223  0.00  0.00    +0.000 HD
ENDBRANCH   5  17
TORSDOF 4
ENDMDL
MODEL 3
REMARK VINA RESULT:      -4.8      2.468      3.810
REMARK  Name = bgox31_5_ligand
REMARK  5 active torsions:
REMARK  status: ('A' for Active; 'I' for Inactive)
REMARK    1  A    between atoms: C_1  and  O_2
REMARK    2  A    between atoms: O_2  and  C_3
REMARK    3  A    between atoms: C_6  and  C_7
REMARK    4  A    between atoms: C_7  and  C_9
REMARK    5  A    between atoms: C_15  and  O_16
REMARK                            x       y       z     vdW  Elec       q    Type
REMARK                         _______ _______ _______ _____ _____    ______ ____
ROOT
ATOM      1  C   UNL     1       8.682   1.795   0.909  0.00  0.00    +0.000 A 
ATOM      2  C   UNL     1       7.720   2.743   1.053  0.00  0.00    +0.000 A 
ATOM      3  C   UNL     1       6.950   3.124  -0.066  0.00  0.00    +0.000 A 
ATOM      4  C   UNL     1       7.139   2.582  -1.322  0.00  0.00    +0.000 A 
ATOM      5  C   UNL     1       8.134   1.620  -1.472  0.00  0.00    +0.000 A 
ATOM      6  C   UNL     1       8.918   1.226  -0.352  0.00  0.00    +0.000 A 
ENDROOT
BRANCH   1   8
ATOM      7  C   UNL     1      10.374   0.462   2.211  0.00  0.00    +0.000 C 
ATOM      8  O   UNL     1       9.383   1.527   2.138  0.00  0.00    +0.000 OA
ENDBRANCH   1   8
BRANCH   4   9
ATOM      9  C   UNL     1       6.328   3.034  -2.426  0.00  0.00    +0.000 C 
ATOM     10  O   UNL     1       5.326   2.376  -2.734  0.00  0.00    +0.000 OA
BRANCH   9  11
ATOM     11  C   UNL     1       6.755   4.210  -3.247  0.00  0.00    +0.000 A 
ATOM     12  C   UNL     1       7.832   5.026  -2.945  0.00  0.00    +0.000 A 
ATOM     13  C   UNL     1       8.179   6.130  -3.769  0.00  0.00    +0.000 A 
ATOM     14  C   UNL     1       7.483   6.434  -4.900  0.00  0.00    +0.000 A 
ATOM     15  C   UNL     1       6.422   5.634  -5.250  0.00  0.00    +0.000 A 
ATOM     16  C   UNL     1       6.062   4.558  -4.404  0.00  0.00    +0.000 A 
ENDBRANCH   9  11
ENDBRANCH   4   9
BRANCH   5  17
ATOM     17  O   UNL     1       8.340   1.056  -2.686  0.00  0.00    +0.000 OA
ATOM     18  H   UNL     1       9.261   0.948  -3.033  0.00  0.00    +0.000 HD
ENDBRANCH   5  17
TORSDOF 4
ENDMDL
MODEL 4
REMARK VINA RESULT:      -4.7      3.695      7.152
REMARK  Name = bgox31_5_ligand
REMARK  5 active torsions:
REMARK  status: ('A' for Active; 'I' for Inactive)
REMARK    1  A    between atoms: C_1  and  O_2
REMARK    2  A    between atoms: O_2  and  C_3
REMARK    3  A    between atoms: C_6  and  C_7
REMARK    4  A    between atoms: C_7  and  C_9
REMARK    5  A    between atoms: C_15  and  O_16
REMARK                            x       y       z     vdW  Elec       q    Type
REMARK                         _______ _______ _______ _____ _____    ______ ____
ROOT
ATOM      1  C   UNL     1       5.689   5.419  -5.237  0.00  0.00    +0.000 A 
ATOM      2  C   UNL     1       5.276   5.145  -3.972  0.00  0.00    +0.000 A 
ATOM      3  C   UNL     1       5.928   4.131  -3.237  0.00  0.00    +0.000 A 
ATOM      4  C   UNL     1       6.968   3.385  -3.752  0.00  0.00    +0.000 A 
ATOM      5  C   UNL     1       7.381   3.658  -5.054  0.00  0.00    +0.000 A 
ATOM      6  C   UNL     1       6.735   4.676  -5.807  0.00  0.00    +0.000 A 
ENDROOT
BRANCH   1   8
ATOM      7  C   UNL     1       5.240   6.933  -7.197  0.00  0.00    +0.000 C 
ATOM      8  O   UNL     1       4.919   6.468  -5.855  0.00  0.00    +0.000 OA
ENDBRANCH   1   8
BRANCH   4   9
ATOM      9  C   UNL     1       7.573   2.350  -2.950  0.00  0.00    +0.000 C 
ATOM     10  O   UNL     1       7.817   1.258  -3.478  0.00  0.00    +0.000 OA
BRANCH   9  11
ATOM     11  C   UNL     1       7.798   2.562  -1.486  0.00  0.00    +0.000 A 
ATOM     12  C   UNL     1       8.548   3.595  -0.950  0.00  0.00    +0.000 A 
ATOM     13  C   UNL     1       8.723   3.734   0.454  0.00  0.00    +0.000 A 
ATOM     14  C   UNL     1       8.155   2.869   1.341  0.00  0.00    +0.000 A 
ATOM     15  C   UNL     1       7.383   1.843   0.851  0.00  0.00    +0.000 A 
ATOM     16  C   UNL     1       7.243   1.693  -0.549  0.00  0.00    +0.000 A 
ENDBRANCH   9  11
ENDBRANCH   4   9
BRANCH   5  17
ATOM     17  O   UNL     1       8.408   2.955  -5.589  0.00  0.00    +0.000 OA
ATOM     18  H   UNL     1       8.709   2.113  -5.162  0.00  0.00    +0.000 HD
ENDBRANCH   5  17
TORSDOF 4
ENDMDL
MODEL 5
REMARK VINA RESULT:      -4.6      3.236      5.882
REMARK  Name = bgox31_5_ligand
REMARK  5 active torsions:
REMARK  status: ('A' for Active; 'I' for Inactive)
REMARK    1  A    between atoms: C_1  and  O_2
REMARK    2  A    between atoms: O_2  and  C_3
REMARK    3  A    between atoms: C_6  and  C_7
REMARK    4  A    between atoms: C_7  and  C_9
REMARK    5  A    between atoms: C_15  and  O_16
REMARK                            x       y       z     vdW  Elec       q    Type
REMARK                         _______ _______ _______ _____ _____    ______ ____
ROOT
ATOM      1  C   UNL     1       7.577   5.654  -3.520  0.00  0.00    +0.000 A 
ATOM      2  C   UNL     1       8.610   5.437  -2.664  0.00  0.00    +0.000 A 
ATOM      3  C   UNL     1       8.843   4.133  -2.178  0.00  0.00    +0.000 A 
ATOM      4  C   UNL     1       8.054   3.055  -2.524  0.00  0.00    +0.000 A 
ATOM      5  C   UNL     1       6.988   3.281  -3.391  0.00  0.00    +0.000 A 
ATOM      6  C   UNL     1       6.741   4.589  -3.888  0.00  0.00    +0.000 A 
ENDROOT
BRANCH   1   8
ATOM      7  C   UNL     1       8.176   7.532  -5.085  0.00  0.00    +0.000 C 
ATOM      8  O   UNL     1       7.467   7.035  -3.914  0.00  0.00    +0.000 OA
ENDBRANCH   1   8
BRANCH   4   9
ATOM      9  C   UNL     1       8.339   1.752  -1.972  0.00  0.00    +0.000 C 
ATOM     10  O   UNL     1       8.352   0.776  -2.733  0.00  0.00    +0.000 OA
BRANCH   9  11
ATOM     11  C   UNL     1       8.504   1.575  -0.495  0.00  0.00    +0.000 A 
ATOM     12  C   UNL     1       9.721   1.388   0.138  0.00  0.00    +0.000 A 
ATOM     13  C   UNL     1       9.805   1.223   1.548  0.00  0.00    +0.000 A 
ATOM     14  C   UNL     1       8.700   1.252   2.345  0.00  0.00    +0.000 A 
ATOM     15  C   UNL     1       7.475   1.461   1.758  0.00  0.00    +0.000 A 
ATOM     16  C   UNL     1       7.398   1.589   0.351  0.00  0.00    +0.000 A 
ENDBRANCH   9  11
ENDBRANCH   4   9
BRANCH   5  17
ATOM     17  O   UNL     1       6.199   2.244  -3.763  0.00  0.00    +0.000 OA
ATOM     18  H   UNL     1       5.214   2.319  -3.687  0.00  0.00    +0.000 HD
ENDBRANCH   5  17
TORSDOF 4
ENDMDL
MODEL 6
REMARK VINA RESULT:      -4.6      1.291      1.849
REMARK  Name = bgox31_5_ligand
REMARK  5 active torsions:
REMARK  status: ('A' for Active; 'I' for Inactive)
REMARK    1  A    between atoms: C_1  and  O_2
REMARK    2  A    between atoms: O_2  and  C_3
REMARK    3  A    between atoms: C_6  and  C_7
REMARK    4  A    between atoms: C_7  and  C_9
REMARK    5  A    between atoms: C_15  and  O_16
REMARK                            x       y       z     vdW  Elec       q    Type
REMARK                         _______ _______ _______ _____ _____    ______ ____
ROOT
ATOM      1  C   UNL     1      10.398   5.153   2.136  0.00  0.00    +0.000 A 
ATOM      2  C   UNL     1       9.225   5.563   1.588  0.00  0.00    +0.000 A 
ATOM      3  C   UNL     1       8.317   4.601   1.097  0.00  0.00    +0.000 A 
ATOM      4  C   UNL     1       8.572   3.245   1.135  0.00  0.00    +0.000 A 
ATOM      5  C   UNL     1       9.781   2.826   1.685  0.00  0.00    +0.000 A 
ATOM      6  C   UNL     1      10.706   3.784   2.184  0.00  0.00    +0.000 A 
ENDROOT
BRANCH   1   8
ATOM      7  C   UNL     1      10.607   7.494   3.036  0.00  0.00    +0.000 C 
ATOM      8  O   UNL     1      11.216   6.252   2.579  0.00  0.00    +0.000 OA
ENDBRANCH   1   8
BRANCH   4   9
ATOM      9  C   UNL     1       7.607   2.319   0.595  0.00  0.00    +0.000 C 
ATOM     10  O   UNL     1       7.167   1.425   1.330  0.00  0.00    +0.000 OA
BRANCH   9  11
ATOM     11  C   UNL     1       7.231   2.374  -0.853  0.00  0.00    +0.000 A 
ATOM     12  C   UNL     1       6.045   2.902  -1.333  0.00  0.00    +0.000 A 
ATOM     13  C   UNL     1       5.751   2.919  -2.724  0.00  0.00    +0.000 A 
ATOM     14  C   UNL     1       6.622   2.431  -3.652  0.00  0.00    +0.000 A 
ATOM     15  C   UNL     1       7.822   1.922  -3.218  0.00  0.00    +0.000 A 
ATOM     16  C   UNL     1       8.091   1.877  -1.830  0.00  0.00    +0.000 A 
ENDBRANCH   9  11
ENDBRANCH   4   9
BRANCH   5  17
ATOM     17  O   UNL     1      10.061   1.502   1.751  0.00  0.00    +0.000 OA
ATOM     18  H   UNL     1       9.343   0.853   1.961  0.00  0.00    +0.000 HD
ENDBRANCH   5  17
TORSDOF 4
ENDMDL
MODEL 7
REMARK VINA RESULT:      -4.6      2.112      6.105
REMARK  Name = bgox31_5_ligand
REMARK  5 active torsions:
REMARK  status: ('A' for Active; 'I' for Inactive)
REMARK    1  A    between atoms: C_1  and  O_2
REMARK    2  A    between atoms: O_2  and  C_3
REMARK    3  A    between atoms: C_6  and  C_7
REMARK    4  A    between atoms: C_7  and  C_9
REMARK    5  A    between atoms: C_15  and  O_16
REMARK                            x       y       z     vdW  Elec       q    Type
REMARK                         _______ _______ _______ _____ _____    ______ ____
ROOT
ATOM      1  C   UNL     1       7.683   2.848  -3.999  0.00  0.00    +0.000 A 
ATOM      2  C   UNL     1       8.690   2.085  -3.496  0.00  0.00    +0.000 A 
ATOM      3  C   UNL     1       8.661   1.712  -2.135  0.00  0.00    +0.000 A 
ATOM      4  C   UNL     1       7.653   2.100  -1.275  0.00  0.00    +0.000 A 
ATOM      5  C   UNL     1       6.630   2.892  -1.789  0.00  0.00    +0.000 A 
ATOM      6  C   UNL     1       6.645   3.276  -3.157  0.00  0.00    +0.000 A 
ENDROOT
BRANCH   1   8
ATOM      7  C   UNL     1       7.368   4.400  -5.954  0.00  0.00    +0.000 C 
ATOM      8  O   UNL     1       7.864   3.150  -5.395  0.00  0.00    +0.000 OA
ENDBRANCH   1   8
BRANCH   4   9
ATOM      9  C   UNL     1       7.699   1.699   0.109  0.00  0.00    +0.000 C 
ATOM     10  O   UNL     1       6.765   1.025   0.563  0.00  0.00    +0.000 OA
BRANCH   9  11
ATOM     11  C   UNL     1       8.800   2.181   1.002  0.00  0.00    +0.000 A 
ATOM     12  C   UNL     1       9.274   3.482   1.026  0.00  0.00    +0.000 A 
ATOM     13  C   UNL     1      10.327   3.871   1.898  0.00  0.00    +0.000 A 
ATOM     14  C   UNL     1      10.911   2.993   2.760  0.00  0.00    +0.000 A 
ATOM     15  C   UNL     1      10.453   1.698   2.786  0.00  0.00    +0.000 A 
ATOM     16  C   UNL     1       9.429   1.311   1.889  0.00  0.00    +0.000 A 
ENDBRANCH   9  11
ENDBRANCH   4   9
BRANCH   5  17
ATOM     17  O   UNL     1       5.617   3.282  -0.977  0.00  0.00    +0.000 OA
ATOM     18  H   UNL     1       5.221   2.640  -0.335  0.00  0.00    +0.000 HD
ENDBRANCH   5  17
TORSDOF 4
ENDMDL
MODEL 8
REMARK VINA RESULT:      -4.6      2.965      6.285
REMARK  Name = bgox31_5_ligand
REMARK  5 active torsions:
REMARK  status: ('A' for Active; 'I' for Inactive)
REMARK    1  A    between atoms: C_1  and  O_2
REMARK    2  A    between atoms: O_2  and  C_3
REMARK    3  A    between atoms: C_6  and  C_7
REMARK    4  A    between atoms: C_7  and  C_9
REMARK    5  A    between atoms: C_15  and  O_16
REMARK                            x       y       z     vdW  Elec       q    Type
REMARK                         _______ _______ _______ _____ _____    ______ ____
ROOT
ATOM      1  C   UNL     1       6.638   4.876  -3.707  0.00  0.00    +0.000 A 
ATOM      2  C   UNL     1       5.883   3.890  -3.155  0.00  0.00    +0.000 A 
ATOM      3  C   UNL     1       6.521   2.812  -2.506  0.00  0.00    +0.000 A 
ATOM      4  C   UNL     1       7.894   2.700  -2.416  0.00  0.00    +0.000 A 
ATOM      5  C   UNL     1       8.667   3.704  -2.994  0.00  0.00    +0.000 A 
ATOM      6  C   UNL     1       8.039   4.797  -3.651  0.00  0.00    +0.000 A 
ENDROOT
BRANCH   1   8
ATOM      7  C   UNL     1       5.500   5.803  -5.751  0.00  0.00    +0.000 C 
ATOM      8  O   UNL     1       5.841   5.895  -4.338  0.00  0.00    +0.000 OA
ENDBRANCH   1   8
BRANCH   4   9
ATOM      9  C   UNL     1       8.478   1.558  -1.755  0.00  0.00    +0.000 C 
ATOM     10  O   UNL     1       8.884   0.616  -2.447  0.00  0.00    +0.000 OA
BRANCH   9  11
ATOM     11  C   UNL     1       8.490   1.473  -0.261  0.00  0.00    +0.000 A 
ATOM     12  C   UNL     1       7.357   1.350   0.525  0.00  0.00    +0.000 A 
ATOM     13  C   UNL     1       7.442   1.277   1.942  0.00  0.00    +0.000 A 
ATOM     14  C   UNL     1       8.637   1.311   2.596  0.00  0.00    +0.000 A 
ATOM     15  C   UNL     1       9.787   1.407   1.851  0.00  0.00    +0.000 A 
ATOM     16  C   UNL     1       9.691   1.515   0.444  0.00  0.00    +0.000 A 
ENDBRANCH   9  11
ENDBRANCH   4   9
BRANCH   5  17
ATOM     17  O   UNL     1      10.018   3.635  -2.914  0.00  0.00    +0.000 OA
ATOM     18  H   UNL     1      10.572   3.835  -3.710  0.00  0.00    +0.000 HD
ENDBRANCH   5  17
TORSDOF 4
ENDMDL
MODEL 9
REMARK VINA RESULT:      -4.4      2.039      2.587
REMARK  Name = bgox31_5_ligand
REMARK  5 active torsions:
REMARK  status: ('A' for Active; 'I' for Inactive)
REMARK    1  A    between atoms: C_1  and  O_2
REMARK    2  A    between atoms: O_2  and  C_3
REMARK    3  A    between atoms: C_6  and  C_7
REMARK    4  A    between atoms: C_7  and  C_9
REMARK    5  A    between atoms: C_15  and  O_16
REMARK                            x       y       z     vdW  Elec       q    Type
REMARK                         _______ _______ _______ _____ _____    ______ ____
ROOT
ATOM      1  C   UNL     1      11.537   0.868   1.559  0.00  0.00    +0.000 A 
ATOM      2  C   UNL     1      11.716   1.990   0.814  0.00  0.00    +0.000 A 
ATOM      3  C   UNL     1      10.604   2.802   0.507  0.00  0.00    +0.000 A 
ATOM      4  C   UNL     1       9.322   2.500   0.921  0.00  0.00    +0.000 A 
ATOM      5  C   UNL     1       9.137   1.343   1.673  0.00  0.00    +0.000 A 
ATOM      6  C   UNL     1      10.248   0.515   1.990  0.00  0.00    +0.000 A 
ENDROOT
BRANCH   1   8
ATOM      7  C   UNL     1      13.008  -1.122   1.100  0.00  0.00    +0.000 C 
ATOM      8  O   UNL     1      12.763   0.146   1.775  0.00  0.00    +0.000 OA
ENDBRANCH   1   8
BRANCH   4   9
ATOM      9  C   UNL     1       8.228   3.365   0.552  0.00  0.00    +0.000 C 
ATOM     10  O   UNL     1       7.689   4.048   1.433  0.00  0.00    +0.000 OA
BRANCH   9  11
ATOM     11  C   UNL     1       7.689   3.352  -0.844  0.00  0.00    +0.000 A 
ATOM     12  C   UNL     1       8.339   3.894  -1.939  0.00  0.00    +0.000 A 
ATOM     13  C   UNL     1       7.765   3.849  -3.239  0.00  0.00    +0.000 A 
ATOM     14  C   UNL     1       6.559   3.261  -3.475  0.00  0.00    +0.000 A 
ATOM     15  C   UNL     1       5.892   2.689  -2.419  0.00  0.00    +0.000 A 
ATOM     16  C   UNL     1       6.454   2.770  -1.123  0.00  0.00    +0.000 A 
ENDBRANCH   9  11
ENDBRANCH   4   9
BRANCH   5  17
ATOM     17  O   UNL     1       7.894   1.021   2.107  0.00  0.00    +0.000 OA
ATOM     18  H   UNL     1       7.650   1.159   3.057  0.00  0.00    +0.000 HD
ENDBRANCH   5  17
TORSDOF 4
ENDMDL
