REMARK  Name = ox2_shuffle_ligand
REMARK  5 active torsions:
REMARK  status: ('A' for Active; 'I' for Inactive)
REMARK    1  A    between atoms: C_1  and  O_2
REMARK    2  A    between atoms: O_2  and  C_3
REMARK    3  A    between atoms: C_6  and  C_7
REMARK    4  A    between atoms: C_7  and  C_9
REMARK    5  A    between atoms: C_15  and  O_16
REMARK                            x       y       z     vdW  Elec       q    Type
REMARK                         _______ _______ _______ _____ _____    ______ ____
ROOT
ATOM      1  C   UNL     1       7.495   4.554  -3.308  0.00  0.00    +0.000 A 
ATOM      2  C   UNL     1       7.212   5.844  -2.888  0.00  0.00    +0.000 A 
ATOM      3  C   UNL     1       6.157   6.088  -2.036  0.00  0.00    +0.000 A 
ATOM      4  C   UNL     1       5.358   5.041  -1.593  0.00  0.00    +0.000 A 
ATOM      5  C   UNL     1       5.634   3.735  -2.022  0.00  0.00    +0.000 A 
ATOM      6  C   UNL     1       6.706   3.505  -2.876  0.00  0.00    +0.000 A 
ENDROOT
BRANCH   1   8
ATOM      7  C   UNL     1       9.216   3.142  -4.221  0.00  0.00    +0.000 C 
ATOM      8  O   UNL     1       8.564   4.384  -4.151  0.00  0.00    +0.000 OA
ENDBRANCH   1   8
BRANCH   4   9
ATOM      9  C   UNL     1       4.203   5.303  -0.663  0.00  0.00    +0.000 C 
ATOM     10  O   UNL     1       3.534   4.376  -0.264  0.00  0.00    +0.000 OA
BRANCH   9  11
ATOM     11  C   UNL     1       3.874   6.685  -0.254  0.00  0.00    +0.000 A 
ATOM     12  C   UNL     1       4.706   7.383   0.614  0.00  0.00    +0.000 A 
ATOM     13  C   UNL     1       4.374   8.674   0.997  0.00  0.00    +0.000 A 
ATOM     14  C   UNL     1       3.216   9.273   0.506  0.00  0.00    +0.000 A 
ATOM     15  C   UNL     1       2.377   8.570  -0.350  0.00  0.00    +0.000 A 
ATOM     16  C   UNL     1       2.698   7.263  -0.725  0.00  0.00    +0.000 A 
ENDBRANCH   9  11
ENDBRANCH   4   9
BRANCH   5  17
ATOM     17  O   UNL     1       4.854   2.703  -1.595  0.00  0.00    +0.000 OA
ATOM     18  H   UNL     1       5.045   1.780  -1.896  0.00  0.00    +0.000 HD
ENDBRANCH   5  17
TORSDOF 4
