MODEL 1
REMARK VINA RESULT:      -4.6      0.000      0.000
REMARK  Name = ox2_shuffle_ligand
REMARK  5 active torsions:
REMARK  status: ('A' for Active; 'I' for Inactive)
REMARK    1  A    between atoms: C_1  and  O_2
REMARK    2  A    between atoms: O_2  and  C_3
REMARK    3  A    between atoms: C_6  and  C_7
REMARK    4  A    between atoms: C_7  and  C_9
REMARK    5  A    between atoms: C_15  and  O_16
REMARK                            x       y       z     vdW  Elec       q    Type
REMARK                         _______ _______ _______ _____ _____    ______ ____
ROOT
ATOM      1  C   UNL     1       1.597   6.154   7.277  0.00  0.00    +0.000 A 
ATOM      2  C   UNL     1       2.640   7.060   7.173  0.00  0.00    +0.000 A 
ATOM      3  C   UNL     1       2.574   8.107   6.279  0.00  0.00    +0.000 A 
ATOM      4  C   UNL     1       1.459   8.261   5.464  0.00  0.00    +0.000 A 
ATOM      5  C   UNL     1       0.405   7.342   5.557  0.00  0.00    +0.000 A 
ATOM      6  C   UNL     1       0.484   6.296   6.469  0.00  0.00    +0.000 A 
ENDROOT
BRANCH   1   8
ATOM      7  C   UNL     1       0.932   3.988   8.087  0.00  0.00    +0.000 C 
ATOM      8  O   UNL     1       1.728   5.141   8.192  0.00  0.00    +0.000 OA
ENDBRANCH   1   8
BRANCH   4   9
ATOM      9  C   UNL     1       1.382   9.402   4.484  0.00  0.00    +0.000 C 
ATOM     10  O   UNL     1       0.669  10.350   4.725  0.00  0.00    +0.000 OA
BRANCH   9  11
ATOM     11  C   UNL     1       2.158   9.358   3.226  0.00  0.00    +0.000 A 
ATOM     12  C   UNL     1       3.548   9.361   3.252  0.00  0.00    +0.000 A 
ATOM     13  C   UNL     1       4.259   9.333   2.061  0.00  0.00    +0.000 A 
ATOM     14  C   UNL     1       3.582   9.292   0.844  0.00  0.00    +0.000 A 
ATOM     15  C   UNL     1       2.193   9.304   0.818  0.00  0.00    +0.000 A 
ATOM     16  C   UNL     1       1.472   9.350   2.014  0.00  0.00    +0.000 A 
ENDBRANCH   9  11
ENDBRANCH   4   9
BRANCH   5  17
ATOM     17  O   UNL     1      -0.690   7.484   4.760  0.00  0.00    +0.000 OA
ATOM     18  H   UNL     1      -0.674   7.143   3.831  0.00  0.00    +0.000 HD
ENDBRANCH   5  17
TORSDOF 4
ENDMDL
MODEL 2
REMARK VINA RESULT:      -4.3     12.563     14.859
REMARK  Name = ox2_shuffle_ligand
REMARK  5 active torsions:
REMARK  status: ('A' for Active; 'I' for Inactive)
REMARK    1  A    between atoms: C_1  and  O_2
REMARK    2  A    between atoms: O_2  and  C_3
REMARK    3  A    between atoms: C_6  and  C_7
REMARK    4  A    between atoms: C_7  and  C_9
REMARK    5  A    between atoms: C_15  and  O_16
REMARK                            x       y       z     vdW  Elec       q    Type
REMARK                         _______ _______ _______ _____ _____    ______ ____
ROOT
ATOM      1  C   UNL     1       7.155   4.978  -8.042  0.00  0.00    +0.000 A 
ATOM      2  C   UNL     1       7.417   3.700  -8.511  0.00  0.00    +0.000 A 
ATOM      3  C   UNL     1       7.508   2.638  -7.637  0.00  0.00    +0.000 A 
ATOM      4  C   UNL     1       7.346   2.839  -6.272  0.00  0.00    +0.000 A 
ATOM      5  C   UNL     1       7.090   4.131  -5.791  0.00  0.00    +0.000 A 
ATOM      6  C   UNL     1       6.994   5.190  -6.686  0.00  0.00    +0.000 A 
ENDROOT
BRANCH   1   8
ATOM      7  C   UNL     1       7.374   5.732 -10.316  0.00  0.00    +0.000 C 
ATOM      8  O   UNL     1       7.071   5.986  -8.969  0.00  0.00    +0.000 OA
ENDBRANCH   1   8
BRANCH   4   9
ATOM      9  C   UNL     1       7.447   1.682  -5.313  0.00  0.00    +0.000 C 
ATOM     10  O   UNL     1       6.468   1.332  -4.693  0.00  0.00    +0.000 OA
BRANCH   9  11
ATOM     11  C   UNL     1       8.738   0.989  -5.114  0.00  0.00    +0.000 A 
ATOM     12  C   UNL     1       9.036  -0.168  -5.823  0.00  0.00    +0.000 A 
ATOM     13  C   UNL     1      10.247  -0.812  -5.613  0.00  0.00    +0.000 A 
ATOM     14  C   UNL     1      11.165  -0.295  -4.702  0.00  0.00    +0.000 A 
ATOM     15  C   UNL     1      10.860   0.854  -3.982  0.00  0.00    +0.000 A 
ATOM     16  C   UNL     1       9.635   1.496  -4.177  0.00  0.00    +0.000 A 
ENDBRANCH   9  11
ENDBRANCH   4   9
BRANCH   5  17
ATOM     17  O   UNL     1       6.933   4.337  -4.454  0.00  0.00    +0.000 OA
ATOM     18  H   UNL     1       6.089   4.720  -4.107  0.00  0.00    +0.000 HD
ENDBRANCH   5  17
TORSDOF 4
ENDMDL
MODEL 3
REMARK VINA RESULT:      -4.3     10.994     13.141
REMARK  Name = ox2_shuffle_ligand
REMARK  5 active torsions:
REMARK  status: ('A' for Active; 'I' for Inactive)
REMARK    1  A    between atoms: C_1  and  O_2
REMARK    2  A    between atoms: O_2  and  C_3
REMARK    3  A    between atoms: C_6  and  C_7
REMARK    4  A    between atoms: C_7  and  C_9
REMARK    5  A    between atoms: C_15  and  O_16
REMARK                            x       y       z     vdW  Elec       q    Type
REMARK                         _______ _______ _______ _____ _____    ______ ____
ROOT
ATOM      1  C   UNL     1       9.050   4.904  -2.177  0.00  0.00    +0.000 A 
ATOM      2  C   UNL     1       9.638   3.650  -2.131  0.00  0.00    +0.000 A 
ATOM      3  C   UNL     1       9.215   2.647  -2.976  0.00  0.00    +0.000 A 
ATOM      4  C   UNL     1       8.187   2.880  -3.881  0.00  0.00    +0.000 A 
ATOM      5  C   UNL     1       7.583   4.145  -3.926  0.00  0.00    +0.000 A 
ATOM      6  C   UNL     1       8.025   5.147  -3.071  0.00  0.00    +0.000 A 
ENDROOT
BRANCH   1   8
ATOM      7  C   UNL     1       8.685   6.389  -0.319  0.00  0.00    +0.000 C 
ATOM      8  O   UNL     1       9.525   5.857  -1.311  0.00  0.00    +0.000 OA
ENDBRANCH   1   8
BRANCH   4   9
ATOM      9  C   UNL     1       7.721   1.787  -4.806  0.00  0.00    +0.000 C 
ATOM     10  O   UNL     1       6.566   1.425  -4.770  0.00  0.00    +0.000 OA
BRANCH   9  11
ATOM     11  C   UNL     1       8.671   1.144  -5.738  0.00  0.00    +0.000 A 
ATOM     12  C   UNL     1       9.229  -0.094  -5.438  0.00  0.00    +0.000 A 
ATOM     13  C   UNL     1      10.129  -0.675  -6.318  0.00  0.00    +0.000 A 
ATOM     14  C   UNL     1      10.465  -0.027  -7.505  0.00  0.00    +0.000 A 
ATOM     15  C   UNL     1       9.918   1.217  -7.798  0.00  0.00    +0.000 A 
ATOM     16  C   UNL     1       9.025   1.815  -6.906  0.00  0.00    +0.000 A 
ENDBRANCH   9  11
ENDBRANCH   4   9
BRANCH   5  17
ATOM     17  O   UNL     1       6.572   4.381  -4.808  0.00  0.00    +0.000 OA
ATOM     18  H   UNL     1       6.714   4.994  -5.572  0.00  0.00    +0.000 HD
ENDBRANCH   5  17
TORSDOF 4
ENDMDL
MODEL 4
REMARK VINA RESULT:      -4.3      4.412      7.230
REMARK  Name = ox2_shuffle_ligand
REMARK  5 active torsions:
REMARK  status: ('A' for Active; 'I' for Inactive)
REMARK    1  A    between atoms: C_1  and  O_2
REMARK    2  A    between atoms: O_2  and  C_3
REMARK    3  A    between atoms: C_6  and  C_7
REMARK    4  A    between atoms: C_7  and  C_9
REMARK    5  A    between atoms: C_15  and  O_16
REMARK                            x       y       z     vdW  Elec       q    Type
REMARK                         _______ _______ _______ _____ _____    ______ ____
ROOT
ATOM      1  C   UNL     1      -0.614   6.251  -2.696  0.00  0.00    +0.000 A 
ATOM      2  C   UNL     1      -0.895   6.102  -1.347  0.00  0.00    +0.000 A 
ATOM      3  C   UNL     1      -0.668   7.137  -0.466  0.00  0.00    +0.000 A 
ATOM      4  C   UNL     1      -0.145   8.342  -0.921  0.00  0.00    +0.000 A 
ATOM      5  C   UNL     1       0.149   8.494  -2.283  0.00  0.00    +0.000 A 
ATOM      6  C   UNL     1      -0.092   7.443  -3.160  0.00  0.00    +0.000 A 
ENDROOT
BRANCH   1   8
ATOM      7  C   UNL     1       0.051   4.819  -4.512  0.00  0.00    +0.000 C 
ATOM      8  O   UNL     1      -0.871   5.181  -3.517  0.00  0.00    +0.000 OA
ENDBRANCH   1   8
BRANCH   4   9
ATOM      9  C   UNL     1       0.106   9.475   0.039  0.00  0.00    +0.000 C 
ATOM     10  O   UNL     1      -0.614  10.448   0.017  0.00  0.00    +0.000 OA
BRANCH   9  11
ATOM     11  C   UNL     1       1.237   9.410   0.989  0.00  0.00    +0.000 A 
ATOM     12  C   UNL     1       1.010   9.413   2.360  0.00  0.00    +0.000 A 
ATOM     13  C   UNL     1       2.084   9.365   3.236  0.00  0.00    +0.000 A 
ATOM     14  C   UNL     1       3.385   9.304   2.744  0.00  0.00    +0.000 A 
ATOM     15  C   UNL     1       3.613   9.316   1.373  0.00  0.00    +0.000 A 
ATOM     16  C   UNL     1       2.535   9.382   0.487  0.00  0.00    +0.000 A 
ENDBRANCH   9  11
ENDBRANCH   4   9
BRANCH   5  17
ATOM     17  O   UNL     1       0.665   9.671  -2.737  0.00  0.00    +0.000 OA
ATOM     18  H   UNL     1       1.107  10.294  -2.108  0.00  0.00    +0.000 HD
ENDBRANCH   5  17
TORSDOF 4
ENDMDL
MODEL 5
REMARK VINA RESULT:      -4.3     10.744     12.939
REMARK  Name = ox2_shuffle_ligand
REMARK  5 active torsions:
REMARK  status: ('A' for Active; 'I' for Inactive)
REMARK    1  A    between atoms: C_1  and  O_2
REMARK    2  A    between atoms: O_2  and  C_3
REMARK    3  A    between atoms: C_6  and  C_7
REMARK    4  A    between atoms: C_7  and  C_9
REMARK    5  A    between atoms: C_15  and  O_16
REMARK                            x       y       z     vdW  Elec       q    Type
REMARK                         _______ _______ _______ _____ _____    ______ ____
ROOT
ATOM      1  C   UNL     1       8.983   4.743  -2.136  0.00  0.00    +0.000 A 
ATOM      2  C   UNL     1       7.892   5.136  -2.895  0.00  0.00    +0.000 A 
ATOM      3  C   UNL     1       7.345   4.283  -3.830  0.00  0.00    +0.000 A 
ATOM      4  C   UNL     1       7.888   3.020  -4.027  0.00  0.00    +0.000 A 
ATOM      5  C   UNL     1       8.998   2.621  -3.268  0.00  0.00    +0.000 A 
ATOM      6  C   UNL     1       9.533   3.490  -2.325  0.00  0.00    +0.000 A 
ENDROOT
BRANCH   1   8
ATOM      7  C   UNL     1       8.609   6.227  -0.279  0.00  0.00    +0.000 C 
ATOM      8  O   UNL     1       9.471   5.641  -1.220  0.00  0.00    +0.000 OA
ENDBRANCH   1   8
BRANCH   4   9
ATOM      9  C   UNL     1       7.296   2.085  -5.048  0.00  0.00    +0.000 C 
ATOM     10  O   UNL     1       6.463   1.275  -4.706  0.00  0.00    +0.000 OA
BRANCH   9  11
ATOM     11  C   UNL     1       7.741   2.141  -6.457  0.00  0.00    +0.000 A 
ATOM     12  C   UNL     1       8.864   1.435  -6.873  0.00  0.00    +0.000 A 
ATOM     13  C   UNL     1       9.273   1.511  -8.196  0.00  0.00    +0.000 A 
ATOM     14  C   UNL     1       8.557   2.284  -9.107  0.00  0.00    +0.000 A 
ATOM     15  C   UNL     1       7.443   3.001  -8.688  0.00  0.00    +0.000 A 
ATOM     16  C   UNL     1       7.036   2.942  -7.352  0.00  0.00    +0.000 A 
ENDBRANCH   9  11
ENDBRANCH   4   9
BRANCH   5  17
ATOM     17  O   UNL     1       9.538   1.385  -3.457  0.00  0.00    +0.000 OA
ATOM     18  H   UNL     1       9.045   0.702  -3.977  0.00  0.00    +0.000 HD
ENDBRANCH   5  17
TORSDOF 4
ENDMDL
MODEL 6
REMARK VINA RESULT:      -4.3     12.436     14.344
REMARK  Name = ox2_shuffle_ligand
REMARK  5 active torsions:
REMARK  status: ('A' for Active; 'I' for Inactive)
REMARK    1  A    between atoms: C_1  and  O_2
REMARK    2  A    between atoms: O_2  and  C_3
REMARK    3  A    between atoms: C_6  and  C_7
REMARK    4  A    between atoms: C_7  and  C_9
REMARK    5  A    between atoms: C_15  and  O_16
REMARK                            x       y       z     vdW  Elec       q    Type
REMARK                         _______ _______ _______ _____ _____    ______ ____
ROOT
ATOM      1  C   UNL     1      11.098  -0.494  -4.871  0.00  0.00    +0.000 A 
ATOM      2  C   UNL     1      10.196  -0.767  -5.887  0.00  0.00    +0.000 A 
ATOM      3  C   UNL     1       9.003  -0.081  -5.968  0.00  0.00    +0.000 A 
ATOM      4  C   UNL     1       8.688   0.890  -5.025  0.00  0.00    +0.000 A 
ATOM      5  C   UNL     1       9.593   1.163  -3.990  0.00  0.00    +0.000 A 
ATOM      6  C   UNL     1      10.794   0.467  -3.926  0.00  0.00    +0.000 A 
ENDROOT
BRANCH   1   8
ATOM      7  C   UNL     1      12.300  -2.519  -5.363  0.00  0.00    +0.000 C 
ATOM      8  O   UNL     1      12.268  -1.211  -4.855  0.00  0.00    +0.000 OA
ENDBRANCH   1   8
BRANCH   4   9
ATOM      9  C   UNL     1       7.386   1.641  -5.109  0.00  0.00    +0.000 C 
ATOM     10  O   UNL     1       6.398   1.187  -4.576  0.00  0.00    +0.000 OA
BRANCH   9  11
ATOM     11  C   UNL     1       7.306   2.914  -5.855  0.00  0.00    +0.000 A 
ATOM     12  C   UNL     1       7.400   4.131  -5.189  0.00  0.00    +0.000 A 
ATOM     13  C   UNL     1       7.311   5.316  -5.904  0.00  0.00    +0.000 A 
ATOM     14  C   UNL     1       7.137   5.288  -7.286  0.00  0.00    +0.000 A 
ATOM     15  C   UNL     1       7.028   4.071  -7.950  0.00  0.00    +0.000 A 
ATOM     16  C   UNL     1       7.101   2.875  -7.232  0.00  0.00    +0.000 A 
ENDBRANCH   9  11
ENDBRANCH   4   9
BRANCH   5  17
ATOM     17  O   UNL     1       9.290   2.111  -3.059  0.00  0.00    +0.000 OA
ATOM     18  H   UNL     1       9.024   1.841  -2.145  0.00  0.00    +0.000 HD
ENDBRANCH   5  17
TORSDOF 4
ENDMDL
MODEL 7
REMARK VINA RESULT:      -4.2     12.273     14.760
REMARK  Name = ox2_shuffle_ligand
REMARK  5 active torsions:
REMARK  status: ('A' for Active; 'I' for Inactive)
REMARK    1  A    between atoms: C_1  and  O_2
REMARK    2  A    between atoms: O_2  and  C_3
REMARK    3  A    between atoms: C_6  and  C_7
REMARK    4  A    between atoms: C_7  and  C_9
REMARK    5  A    between atoms: C_15  and  O_16
REMARK                            x       y       z     vdW  Elec       q    Type
REMARK                         _______ _______ _______ _____ _____    ______ ____
ROOT
ATOM      1  C   UNL     1      10.266   0.407  -7.883  0.00  0.00    +0.000 A 
ATOM      2  C   UNL     1       9.380   1.431  -8.177  0.00  0.00    +0.000 A 
ATOM      3  C   UNL     1       8.511   1.904  -7.217  0.00  0.00    +0.000 A 
ATOM      4  C   UNL     1       8.509   1.351  -5.942  0.00  0.00    +0.000 A 
ATOM      5  C   UNL     1       9.397   0.308  -5.642  0.00  0.00    +0.000 A 
ATOM      6  C   UNL     1      10.271  -0.152  -6.620  0.00  0.00    +0.000 A 
ENDROOT
BRANCH   1   8
ATOM      7  C   UNL     1      11.189   0.721 -10.083  0.00  0.00    +0.000 C 
ATOM      8  O   UNL     1      11.105  -0.009  -8.886  0.00  0.00    +0.000 OA
ENDBRANCH   1   8
BRANCH   4   9
ATOM      9  C   UNL     1       7.561   1.862  -4.890  0.00  0.00    +0.000 C 
ATOM     10  O   UNL     1       6.522   1.275  -4.684  0.00  0.00    +0.000 OA
BRANCH   9  11
ATOM     11  C   UNL     1       7.886   3.085  -4.125  0.00  0.00    +0.000 A 
ATOM     12  C   UNL     1       8.830   3.052  -3.106  0.00  0.00    +0.000 A 
ATOM     13  C   UNL     1       9.112   4.206  -2.390  0.00  0.00    +0.000 A 
ATOM     14  C   UNL     1       8.458   5.397  -2.699  0.00  0.00    +0.000 A 
ATOM     15  C   UNL     1       7.503   5.427  -3.708  0.00  0.00    +0.000 A 
ATOM     16  C   UNL     1       7.203   4.263  -4.420  0.00  0.00    +0.000 A 
ENDBRANCH   9  11
ENDBRANCH   4   9
BRANCH   5  17
ATOM     17  O   UNL     1       9.400  -0.242  -4.396  0.00  0.00    +0.000 OA
ATOM     18  H   UNL     1      10.227  -0.236  -3.853  0.00  0.00    +0.000 HD
ENDBRANCH   5  17
TORSDOF 4
ENDMDL
MODEL 8
REMARK VINA RESULT:      -4.2     10.993     13.621
REMARK  Name = ox2_shuffle_ligand
REMARK  5 active torsions:
REMARK  status: ('A' for Active; 'I' for Inactive)
REMARK    1  A    between atoms: C_1  and  O_2
REMARK    2  A    between atoms: O_2  and  C_3
REMARK    3  A    between atoms: C_6  and  C_7
REMARK    4  A    between atoms: C_7  and  C_9
REMARK    5  A    between atoms: C_15  and  O_16
REMARK                            x       y       z     vdW  Elec       q    Type
REMARK                         _______ _______ _______ _____ _____    ______ ____
ROOT
ATOM      1  C   UNL     1       7.188   6.006  -5.193  0.00  0.00    +0.000 A 
ATOM      2  C   UNL     1       7.481   5.419  -3.972  0.00  0.00    +0.000 A 
ATOM      3  C   UNL     1       7.542   4.048  -3.850  0.00  0.00    +0.000 A 
ATOM      4  C   UNL     1       7.301   3.236  -4.952  0.00  0.00    +0.000 A 
ATOM      5  C   UNL     1       6.995   3.824  -6.187  0.00  0.00    +0.000 A 
ATOM      6  C   UNL     1       6.944   5.209  -6.295  0.00  0.00    +0.000 A 
ENDROOT
BRANCH   1   8
ATOM      7  C   UNL     1       6.735   8.112  -4.120  0.00  0.00    +0.000 C 
ATOM      8  O   UNL     1       7.150   7.377  -5.242  0.00  0.00    +0.000 OA
ENDBRANCH   1   8
BRANCH   4   9
ATOM      9  C   UNL     1       7.365   1.737  -4.823  0.00  0.00    +0.000 C 
ATOM     10  O   UNL     1       6.348   1.110  -4.626  0.00  0.00    +0.000 OA
BRANCH   9  11
ATOM     11  C   UNL     1       8.663   1.035  -4.918  0.00  0.00    +0.000 A 
ATOM     12  C   UNL     1       9.735   1.420  -4.122  0.00  0.00    +0.000 A 
ATOM     13  C   UNL     1      10.949   0.759  -4.234  0.00  0.00    +0.000 A 
ATOM     14  C   UNL     1      11.090  -0.294  -5.135  0.00  0.00    +0.000 A 
ATOM     15  C   UNL     1      10.023  -0.670  -5.941  0.00  0.00    +0.000 A 
ATOM     16  C   UNL     1       8.803   0.005  -5.844  0.00  0.00    +0.000 A 
ENDBRANCH   9  11
ENDBRANCH   4   9
BRANCH   5  17
ATOM     17  O   UNL     1       6.755   3.035  -7.272  0.00  0.00    +0.000 OA
ATOM     18  H   UNL     1       6.113   2.285  -7.206  0.00  0.00    +0.000 HD
ENDBRANCH   5  17
TORSDOF 4
ENDMDL
MODEL 9
REMARK VINA RESULT:      -4.2      1.821      2.310
REMARK  Name = ox2_shuffle_ligand
REMARK  5 active torsions:
REMARK  status: ('A' for Active; 'I' for Inactive)
REMARK    1  A    between atoms: C_1  and  O_2
REMARK    2  A    between atoms: O_2  and  C_3
REMARK    3  A    between atoms: C_6  and  C_7
REMARK    4  A    between atoms: C_7  and  C_9
REMARK    5  A    between atoms: C_15  and  O_16
REMARK                            x       y       z     vdW  Elec       q    Type
REMARK                         _______ _______ _______ _____ _____    ______ ____
ROOT
ATOM      1  C   UNL     1       3.139   4.596   7.295  0.00  0.00    +0.000 A 
ATOM      2  C   UNL     1       3.864   5.777   7.308  0.00  0.00    +0.000 A 
ATOM      3  C   UNL     1       3.272   6.967   6.945  0.00  0.00    +0.000 A 
ATOM      4  C   UNL     1       1.940   6.995   6.552  0.00  0.00    +0.000 A 
ATOM      5  C   UNL     1       1.204   5.802   6.528  0.00  0.00    +0.000 A 
ATOM      6  C   UNL     1       1.814   4.611   6.904  0.00  0.00    +0.000 A 
ENDROOT
BRANCH   1   8
ATOM      7  C   UNL     1       4.831   2.935   6.884  0.00  0.00    +0.000 C 
ATOM      8  O   UNL     1       3.790   3.450   7.674  0.00  0.00    +0.000 OA
ENDBRANCH   1   8
BRANCH   4   9
ATOM      9  C   UNL     1       1.289   8.293   6.153  0.00  0.00    +0.000 C 
ATOM     10  O   UNL     1       0.674   8.933   6.977  0.00  0.00    +0.000 OA
BRANCH   9  11
ATOM     11  C   UNL     1       1.383   8.776   4.759  0.00  0.00    +0.000 A 
ATOM     12  C   UNL     1       2.612   9.128   4.213  0.00  0.00    +0.000 A 
ATOM     13  C   UNL     1       2.678   9.592   2.908  0.00  0.00    +0.000 A 
ATOM     14  C   UNL     1       1.519   9.695   2.143  0.00  0.00    +0.000 A 
ATOM     15  C   UNL     1       0.288   9.357   2.693  0.00  0.00    +0.000 A 
ATOM     16  C   UNL     1       0.214   8.906   4.013  0.00  0.00    +0.000 A 
ENDBRANCH   9  11
ENDBRANCH   4   9
BRANCH   5  17
ATOM     17  O   UNL     1      -0.103   5.820   6.141  0.00  0.00    +0.000 OA
ATOM     18  H   UNL     1      -0.820   5.839   6.822  0.00  0.00    +0.000 HD
ENDBRANCH   5  17
TORSDOF 4
ENDMDL
