REMARK  Name = ox2_orig_f8_ligand
REMARK  5 active torsions:
REMARK  status: ('A' for Active; 'I' for Inactive)
REMARK    1  A    between atoms: C_1  and  O_2
REMARK    2  A    between atoms: O_2  and  C_3
REMARK    3  A    between atoms: C_6  and  C_7
REMARK    4  A    between atoms: C_7  and  C_9
REMARK    5  A    between atoms: C_15  and  O_16
REMARK                            x       y       z     vdW  Elec       q    Type
REMARK                         _______ _______ _______ _____ _____    ______ ____
ROOT
ATOM      1  C   UNL     1       1.274   7.293  -1.529  0.00  0.00    +0.000 A 
ATOM      2  C   UNL     1       1.190   8.164  -0.463  0.00  0.00    +0.000 A 
ATOM      3  C   UNL     1       0.051   8.213   0.308  0.00  0.00    +0.000 A 
ATOM      4  C   UNL     1      -1.016   7.400   0.010  0.00  0.00    +0.000 A 
ATOM      5  C   UNL     1      -0.934   6.506  -1.056  0.00  0.00    +0.000 A 
ATOM      6  C   UNL     1       0.212   6.464  -1.817  0.00  0.00    +0.000 A 
ENDROOT
BRANCH   1   8
ATOM      7  C   UNL     1       2.582   6.434  -3.331  0.00  0.00    +0.000 C 
ATOM      8  O   UNL     1       2.430   7.303  -2.247  0.00  0.00    +0.000 OA
ENDBRANCH   1   8
BRANCH   4   9
ATOM      9  C   UNL     1      -2.217   7.470   0.849  0.00  0.00    +0.000 C 
ATOM     10  O   UNL     1      -2.660   6.500   1.150  0.00  0.00    +0.000 OA
BRANCH   9  11
ATOM     11  C   UNL     1      -2.826   8.620   1.470  0.00  0.00    +0.000 A 
ATOM     12  C   UNL     1      -2.853   9.822   0.819  0.00  0.00    +0.000 A 
ATOM     13  C   UNL     1      -3.445  10.918   1.407  0.00  0.00    +0.000 A 
ATOM     14  C   UNL     1      -4.000  10.819   2.661  0.00  0.00    +0.000 A 
ATOM     15  C   UNL     1      -3.994   9.604   3.312  0.00  0.00    +0.000 A 
ATOM     16  C   UNL     1      -3.417   8.492   2.716  0.00  0.00    +0.000 A 
ENDBRANCH   9  11
ENDBRANCH   4   9
BRANCH   5  17
ATOM     17  O   UNL     1      -1.966   5.692  -1.329  0.00  0.00    +0.000 OA
ATOM     18  H   UNL     1      -1.908   5.057  -2.086  0.00  0.00    +0.000 HD
ENDBRANCH   5  17
TORSDOF 4
