MODEL 1
REMARK VINA RESULT:      -4.5      0.000      0.000
REMARK  Name = ox2_orig_f8_ligand
REMARK  5 active torsions:
REMARK  status: ('A' for Active; 'I' for Inactive)
REMARK    1  A    between atoms: C_1  and  O_2
REMARK    2  A    between atoms: O_2  and  C_3
REMARK    3  A    between atoms: C_6  and  C_7
REMARK    4  A    between atoms: C_7  and  C_9
REMARK    5  A    between atoms: C_15  and  O_16
REMARK                            x       y       z     vdW  Elec       q    Type
REMARK                         _______ _______ _______ _____ _____    ______ ____
ROOT
ATOM      1  C   UNL     1      -9.370   8.430   1.519  0.00  0.00    +0.000 A 
ATOM      2  C   UNL     1      -8.087   8.864   1.261  0.00  0.00    +0.000 A 
ATOM      3  C   UNL     1      -7.638   8.976  -0.035  0.00  0.00    +0.000 A 
ATOM      4  C   UNL     1      -8.465   8.642  -1.080  0.00  0.00    +0.000 A 
ATOM      5  C   UNL     1      -9.768   8.217  -0.829  0.00  0.00    +0.000 A 
ATOM      6  C   UNL     1     -10.206   8.113   0.472  0.00  0.00    +0.000 A 
ENDROOT
BRANCH   1   8
ATOM      7  C   UNL     1     -10.751   7.451   3.202  0.00  0.00    +0.000 C 
ATOM      8  O   UNL     1      -9.742   8.342   2.825  0.00  0.00    +0.000 OA
ENDBRANCH   1   8
BRANCH   4   9
ATOM      9  C   UNL     1      -7.962   8.773  -2.452  0.00  0.00    +0.000 C 
ATOM     10  O   UNL     1      -7.650   7.833  -2.950  0.00  0.00    +0.000 OA
BRANCH   9  11
ATOM     11  C   UNL     1      -7.953   9.931  -3.311  0.00  0.00    +0.000 A 
ATOM     12  C   UNL     1      -6.769  10.503  -3.685  0.00  0.00    +0.000 A 
ATOM     13  C   UNL     1      -6.760  11.603  -4.515  0.00  0.00    +0.000 A 
ATOM     14  C   UNL     1      -7.942  12.147  -4.961  0.00  0.00    +0.000 A 
ATOM     15  C   UNL     1      -9.137  11.561  -4.603  0.00  0.00    +0.000 A 
ATOM     16  C   UNL     1      -9.151  10.441  -3.784  0.00  0.00    +0.000 A 
ENDBRANCH   9  11
ENDBRANCH   4   9
BRANCH   5  17
ATOM     17  O   UNL     1     -10.585   7.918  -1.852  0.00  0.00    +0.000 OA
ATOM     18  H   UNL     1     -11.416   8.437  -1.988  0.00  0.00    +0.000 HD
ENDBRANCH   5  17
TORSDOF 4
ENDMDL
MODEL 2
REMARK VINA RESULT:      -4.5     10.998     13.671
REMARK  Name = ox2_orig_f8_ligand
REMARK  5 active torsions:
REMARK  status: ('A' for Active; 'I' for Inactive)
REMARK    1  A    between atoms: C_1  and  O_2
REMARK    2  A    between atoms: O_2  and  C_3
REMARK    3  A    between atoms: C_6  and  C_7
REMARK    4  A    between atoms: C_7  and  C_9
REMARK    5  A    between atoms: C_15  and  O_16
REMARK                            x       y       z     vdW  Elec       q    Type
REMARK                         _______ _______ _______ _____ _____    ______ ____
ROOT
ATOM      1  C   UNL     1      -0.770   9.263   3.961  0.00  0.00    +0.000 A 
ATOM      2  C   UNL     1       0.320   8.529   4.377  0.00  0.00    +0.000 A 
ATOM      3  C   UNL     1       1.116   8.985   5.404  0.00  0.00    +0.000 A 
ATOM      4  C   UNL     1       0.832  10.184   6.013  0.00  0.00    +0.000 A 
ATOM      5  C   UNL     1      -0.277  10.925   5.609  0.00  0.00    +0.000 A 
ATOM      6  C   UNL     1      -1.067  10.456   4.583  0.00  0.00    +0.000 A 
ENDROOT
BRANCH   1   8
ATOM      7  C   UNL     1      -0.913   8.537   1.692  0.00  0.00    +0.000 C 
ATOM      8  O   UNL     1      -1.508   8.751   2.939  0.00  0.00    +0.000 OA
ENDBRANCH   1   8
BRANCH   4   9
ATOM      9  C   UNL     1       1.694  10.645   7.106  0.00  0.00    +0.000 C 
ATOM     10  O   UNL     1       2.378  11.484   6.869  0.00  0.00    +0.000 OA
BRANCH   9  11
ATOM     11  C   UNL     1       1.678  10.267   8.497  0.00  0.00    +0.000 A 
ATOM     12  C   UNL     1       0.642   9.530   9.000  0.00  0.00    +0.000 A 
ATOM     13  C   UNL     1       0.632   9.158  10.326  0.00  0.00    +0.000 A 
ATOM     14  C   UNL     1       1.655   9.539  11.162  0.00  0.00    +0.000 A 
ATOM     15  C   UNL     1       2.711  10.265  10.655  0.00  0.00    +0.000 A 
ATOM     16  C   UNL     1       2.737  10.624   9.316  0.00  0.00    +0.000 A 
ENDBRANCH   9  11
ENDBRANCH   4   9
BRANCH   5  17
ATOM     17  O   UNL     1      -0.570  12.082   6.223  0.00  0.00    +0.000 OA
ATOM     18  H   UNL     1      -0.038  12.375   7.005  0.00  0.00    +0.000 HD
ENDBRANCH   5  17
TORSDOF 4
ENDMDL
MODEL 3
REMARK VINA RESULT:      -4.4      1.189      2.201
REMARK  Name = ox2_orig_f8_ligand
REMARK  5 active torsions:
REMARK  status: ('A' for Active; 'I' for Inactive)
REMARK    1  A    between atoms: C_1  and  O_2
REMARK    2  A    between atoms: O_2  and  C_3
REMARK    3  A    between atoms: C_6  and  C_7
REMARK    4  A    between atoms: C_7  and  C_9
REMARK    5  A    between atoms: C_15  and  O_16
REMARK                            x       y       z     vdW  Elec       q    Type
REMARK                         _______ _______ _______ _____ _____    ______ ____
ROOT
ATOM      1  C   UNL     1      -8.481   8.460   1.139  0.00  0.00    +0.000 A 
ATOM      2  C   UNL     1      -9.476   8.504   0.185  0.00  0.00    +0.000 A 
ATOM      3  C   UNL     1      -9.164   8.742  -1.135  0.00  0.00    +0.000 A 
ATOM      4  C   UNL     1      -7.858   8.950  -1.506  0.00  0.00    +0.000 A 
ATOM      5  C   UNL     1      -6.845   8.892  -0.550  0.00  0.00    +0.000 A 
ATOM      6  C   UNL     1      -7.169   8.649   0.765  0.00  0.00    +0.000 A 
ENDROOT
BRANCH   1   8
ATOM      7  C   UNL     1      -9.989   7.432   2.677  0.00  0.00    +0.000 C 
ATOM      8  O   UNL     1      -8.865   8.223   2.423  0.00  0.00    +0.000 OA
ENDBRANCH   1   8
BRANCH   4   9
ATOM      9  C   UNL     1      -7.553   9.199  -2.918  0.00  0.00    +0.000 C 
ATOM     10  O   UNL     1      -7.158   8.337  -3.492  0.00  0.00    +0.000 OA
BRANCH   9  11
ATOM     11  C   UNL     1      -7.833  10.366  -3.717  0.00  0.00    +0.000 A 
ATOM     12  C   UNL     1      -9.123  10.704  -4.016  0.00  0.00    +0.000 A 
ATOM     13  C   UNL     1      -9.392  11.826  -4.769  0.00  0.00    +0.000 A 
ATOM     14  C   UNL     1      -8.365  12.609  -5.240  0.00  0.00    +0.000 A 
ATOM     15  C   UNL     1      -7.063  12.284  -4.923  0.00  0.00    +0.000 A 
ATOM     16  C   UNL     1      -6.788  11.167  -4.148  0.00  0.00    +0.000 A 
ENDBRANCH   9  11
ENDBRANCH   4   9
BRANCH   5  17
ATOM     17  O   UNL     1      -5.566   9.067  -0.918  0.00  0.00    +0.000 OA
ATOM     18  H   UNL     1      -5.352   9.591  -1.730  0.00  0.00    +0.000 HD
ENDBRANCH   5  17
TORSDOF 4
ENDMDL
MODEL 4
REMARK VINA RESULT:      -4.3     10.659     13.177
REMARK  Name = ox2_orig_f8_ligand
REMARK  5 active torsions:
REMARK  status: ('A' for Active; 'I' for Inactive)
REMARK    1  A    between atoms: C_1  and  O_2
REMARK    2  A    between atoms: O_2  and  C_3
REMARK    3  A    between atoms: C_6  and  C_7
REMARK    4  A    between atoms: C_7  and  C_9
REMARK    5  A    between atoms: C_15  and  O_16
REMARK                            x       y       z     vdW  Elec       q    Type
REMARK                         _______ _______ _______ _____ _____    ______ ____
ROOT
ATOM      1  C   UNL     1      -1.426   9.887   3.703  0.00  0.00    +0.000 A 
ATOM      2  C   UNL     1      -1.457  10.943   4.591  0.00  0.00    +0.000 A 
ATOM      3  C   UNL     1      -0.441  11.115   5.503  0.00  0.00    +0.000 A 
ATOM      4  C   UNL     1       0.606  10.226   5.541  0.00  0.00    +0.000 A 
ATOM      5  C   UNL     1       0.653   9.165   4.638  0.00  0.00    +0.000 A 
ATOM      6  C   UNL     1      -0.368   9.006   3.729  0.00  0.00    +0.000 A 
ENDROOT
BRANCH   1   8
ATOM      7  C   UNL     1      -2.460   8.774   1.863  0.00  0.00    +0.000 C 
ATOM      8  O   UNL     1      -2.467   9.780   2.833  0.00  0.00    +0.000 OA
ENDBRANCH   1   8
BRANCH   4   9
ATOM      9  C   UNL     1       1.677  10.434   6.521  0.00  0.00    +0.000 C 
ATOM     10  O   UNL     1       2.585  10.951   6.151  0.00  0.00    +0.000 OA
BRANCH   9  11
ATOM     11  C   UNL     1       1.666  10.198   7.944  0.00  0.00    +0.000 A 
ATOM     12  C   UNL     1       2.673  10.684   8.731  0.00  0.00    +0.000 A 
ATOM     13  C   UNL     1       2.657  10.469  10.092  0.00  0.00    +0.000 A 
ATOM     14  C   UNL     1       1.637   9.750  10.670  0.00  0.00    +0.000 A 
ATOM     15  C   UNL     1       0.609   9.277   9.883  0.00  0.00    +0.000 A 
ATOM     16  C   UNL     1       0.610   9.508   8.515  0.00  0.00    +0.000 A 
ENDBRANCH   9  11
ENDBRANCH   4   9
BRANCH   5  17
ATOM     17  O   UNL     1       1.690   8.314   4.658  0.00  0.00    +0.000 OA
ATOM     18  H   UNL     1       2.405   8.420   5.335  0.00  0.00    +0.000 HD
ENDBRANCH   5  17
TORSDOF 4
ENDMDL
MODEL 5
REMARK VINA RESULT:      -4.2      1.699      2.960
REMARK  Name = ox2_orig_f8_ligand
REMARK  5 active torsions:
REMARK  status: ('A' for Active; 'I' for Inactive)
REMARK    1  A    between atoms: C_1  and  O_2
REMARK    2  A    between atoms: O_2  and  C_3
REMARK    3  A    between atoms: C_6  and  C_7
REMARK    4  A    between atoms: C_7  and  C_9
REMARK    5  A    between atoms: C_15  and  O_16
REMARK                            x       y       z     vdW  Elec       q    Type
REMARK                         _______ _______ _______ _____ _____    ______ ____
ROOT
ATOM      1  C   UNL     1      -6.738   9.081   1.658  0.00  0.00    +0.000 A 
ATOM      2  C   UNL     1      -8.034   8.862   1.242  0.00  0.00    +0.000 A 
ATOM      3  C   UNL     1      -8.334   8.798  -0.100  0.00  0.00    +0.000 A 
ATOM      4  C   UNL     1      -7.340   8.965  -1.034  0.00  0.00    +0.000 A 
ATOM      5  C   UNL     1      -6.025   9.172  -0.623  0.00  0.00    +0.000 A 
ATOM      6  C   UNL     1      -5.738   9.231   0.722  0.00  0.00    +0.000 A 
ENDROOT
BRANCH   1   8
ATOM      7  C   UNL     1      -5.938  10.274   3.564  0.00  0.00    +0.000 C 
ATOM      8  O   UNL     1      -6.519   9.135   3.000  0.00  0.00    +0.000 OA
ENDBRANCH   1   8
BRANCH   4   9
ATOM      9  C   UNL     1      -7.685   8.890  -2.458  0.00  0.00    +0.000 C 
ATOM     10  O   UNL     1      -7.558   7.900  -2.940  0.00  0.00    +0.000 OA
BRANCH   9  11
ATOM     11  C   UNL     1      -8.312   9.883  -3.295  0.00  0.00    +0.000 A 
ATOM     12  C   UNL     1      -9.672   9.913  -3.429  0.00  0.00    +0.000 A 
ATOM     13  C   UNL     1     -10.272  10.868  -4.219  0.00  0.00    +0.000 A 
ATOM     14  C   UNL     1      -9.508  11.791  -4.895  0.00  0.00    +0.000 A 
ATOM     15  C   UNL     1      -8.138  11.777  -4.746  0.00  0.00    +0.000 A 
ATOM     16  C   UNL     1      -7.530  10.830  -3.935  0.00  0.00    +0.000 A 
ENDBRANCH   9  11
ENDBRANCH   4   9
BRANCH   5  17
ATOM     17  O   UNL     1      -5.050   9.307  -1.536  0.00  0.00    +0.000 OA
ATOM     18  H   UNL     1      -4.750   8.522  -2.059  0.00  0.00    +0.000 HD
ENDBRANCH   5  17
TORSDOF 4
ENDMDL
MODEL 6
REMARK VINA RESULT:      -4.2     12.258     14.591
REMARK  Name = ox2_orig_f8_ligand
REMARK  5 active torsions:
REMARK  status: ('A' for Active; 'I' for Inactive)
REMARK    1  A    between atoms: C_1  and  O_2
REMARK    2  A    between atoms: O_2  and  C_3
REMARK    3  A    between atoms: C_6  and  C_7
REMARK    4  A    between atoms: C_7  and  C_9
REMARK    5  A    between atoms: C_15  and  O_16
REMARK                            x       y       z     vdW  Elec       q    Type
REMARK                         _______ _______ _______ _____ _____    ______ ____
ROOT
ATOM      1  C   UNL     1       3.670   8.656   3.281  0.00  0.00    +0.000 A 
ATOM      2  C   UNL     1       4.323   9.612   4.032  0.00  0.00    +0.000 A 
ATOM      3  C   UNL     1       3.670  10.257   5.057  0.00  0.00    +0.000 A 
ATOM      4  C   UNL     1       2.357   9.959   5.331  0.00  0.00    +0.000 A 
ATOM      5  C   UNL     1       1.694   8.983   4.588  0.00  0.00    +0.000 A 
ATOM      6  C   UNL     1       2.359   8.343   3.567  0.00  0.00    +0.000 A 
ENDROOT
BRANCH   1   8
ATOM      7  C   UNL     1       5.282   7.040   2.583  0.00  0.00    +0.000 C 
ATOM      8  O   UNL     1       4.379   8.063   2.282  0.00  0.00    +0.000 OA
ENDBRANCH   1   8
BRANCH   4   9
ATOM      9  C   UNL     1       1.685  10.658   6.431  0.00  0.00    +0.000 C 
ATOM     10  O   UNL     1       0.995  11.476   6.142  0.00  0.00    +0.000 OA
BRANCH   9  11
ATOM     11  C   UNL     1       1.673  10.341   7.838  0.00  0.00    +0.000 A 
ATOM     12  C   UNL     1       0.659   9.592   8.367  0.00  0.00    +0.000 A 
ATOM     13  C   UNL     1       0.654   9.279   9.709  0.00  0.00    +0.000 A 
ATOM     14  C   UNL     1       1.659   9.729  10.532  0.00  0.00    +0.000 A 
ATOM     15  C   UNL     1       2.694  10.465   9.998  0.00  0.00    +0.000 A 
ATOM     16  C   UNL     1       2.716  10.767   8.644  0.00  0.00    +0.000 A 
ENDBRANCH   9  11
ENDBRANCH   4   9
BRANCH   5  17
ATOM     17  O   UNL     1       0.420   8.672   4.875  0.00  0.00    +0.000 OA
ATOM     18  H   UNL     1       0.153   7.724   4.973  0.00  0.00    +0.000 HD
ENDBRANCH   5  17
TORSDOF 4
ENDMDL
MODEL 7
REMARK VINA RESULT:      -4.2      1.840      6.155
REMARK  Name = ox2_orig_f8_ligand
REMARK  5 active torsions:
REMARK  status: ('A' for Active; 'I' for Inactive)
REMARK    1  A    between atoms: C_1  and  O_2
REMARK    2  A    between atoms: O_2  and  C_3
REMARK    3  A    between atoms: C_6  and  C_7
REMARK    4  A    between atoms: C_7  and  C_9
REMARK    5  A    between atoms: C_15  and  O_16
REMARK                            x       y       z     vdW  Elec       q    Type
REMARK                         _______ _______ _______ _____ _____    ______ ____
ROOT
ATOM      1  C   UNL     1      -7.506  12.219  -4.965  0.00  0.00    +0.000 A 
ATOM      2  C   UNL     1      -8.768  11.753  -4.663  0.00  0.00    +0.000 A 
ATOM      3  C   UNL     1      -8.928  10.621  -3.897  0.00  0.00    +0.000 A 
ATOM      4  C   UNL     1      -7.826   9.940  -3.439  0.00  0.00    +0.000 A 
ATOM      5  C   UNL     1      -6.547  10.412  -3.726  0.00  0.00    +0.000 A 
ATOM      6  C   UNL     1      -6.400  11.547  -4.490  0.00  0.00    +0.000 A 
ENDROOT
BRANCH   1   8
ATOM      7  C   UNL     1      -8.572  13.837  -6.358  0.00  0.00    +0.000 C 
ATOM      8  O   UNL     1      -7.426  13.342  -5.729  0.00  0.00    +0.000 OA
ENDBRANCH   1   8
BRANCH   4   9
ATOM      9  C   UNL     1      -8.024   8.738  -2.623  0.00  0.00    +0.000 C 
ATOM     10  O   UNL     1      -7.534   7.813  -2.987  0.00  0.00    +0.000 OA
BRANCH   9  11
ATOM     11  C   UNL     1      -8.644   8.611  -1.327  0.00  0.00    +0.000 A 
ATOM     12  C   UNL     1      -7.929   8.878  -0.192  0.00  0.00    +0.000 A 
ATOM     13  C   UNL     1      -8.523   8.768   1.046  0.00  0.00    +0.000 A 
ATOM     14  C   UNL     1      -9.836   8.373   1.154  0.00  0.00    +0.000 A 
ATOM     15  C   UNL     1     -10.566   8.124   0.012  0.00  0.00    +0.000 A 
ATOM     16  C   UNL     1      -9.978   8.252  -1.238  0.00  0.00    +0.000 A 
ENDBRANCH   9  11
ENDBRANCH   4   9
BRANCH   5  17
ATOM     17  O   UNL     1      -5.471   9.762  -3.254  0.00  0.00    +0.000 OA
ATOM     18  H   UNL     1      -4.563  10.049  -3.523  0.00  0.00    +0.000 HD
ENDBRANCH   5  17
TORSDOF 4
ENDMDL
MODEL 8
REMARK VINA RESULT:      -4.2      2.747      3.595
REMARK  Name = ox2_orig_f8_ligand
REMARK  5 active torsions:
REMARK  status: ('A' for Active; 'I' for Inactive)
REMARK    1  A    between atoms: C_1  and  O_2
REMARK    2  A    between atoms: O_2  and  C_3
REMARK    3  A    between atoms: C_6  and  C_7
REMARK    4  A    between atoms: C_7  and  C_9
REMARK    5  A    between atoms: C_15  and  O_16
REMARK                            x       y       z     vdW  Elec       q    Type
REMARK                         _______ _______ _______ _____ _____    ______ ____
ROOT
ATOM      1  C   UNL     1      -5.905   9.678   2.744  0.00  0.00    +0.000 A 
ATOM      2  C   UNL     1      -6.440  10.755   2.069  0.00  0.00    +0.000 A 
ATOM      3  C   UNL     1      -6.632  10.699   0.707  0.00  0.00    +0.000 A 
ATOM      4  C   UNL     1      -6.277   9.569   0.010  0.00  0.00    +0.000 A 
ATOM      5  C   UNL     1      -5.750   8.470   0.686  0.00  0.00    +0.000 A 
ATOM      6  C   UNL     1      -5.567   8.538   2.048  0.00  0.00    +0.000 A 
ENDROOT
BRANCH   1   8
ATOM      7  C   UNL     1      -6.060  11.018   4.713  0.00  0.00    +0.000 C 
ATOM      8  O   UNL     1      -5.742   9.808   4.089  0.00  0.00    +0.000 OA
ENDBRANCH   1   8
BRANCH   4   9
ATOM      9  C   UNL     1      -6.494   9.534  -1.440  0.00  0.00    +0.000 C 
ATOM     10  O   UNL     1      -5.592   9.381  -2.066  0.00  0.00    +0.000 OA
BRANCH   9  11
ATOM     11  C   UNL     1      -7.736   9.518  -2.173  0.00  0.00    +0.000 A 
ATOM     12  C   UNL     1      -7.953  10.416  -3.182  0.00  0.00    +0.000 A 
ATOM     13  C   UNL     1      -9.134  10.394  -3.890  0.00  0.00    +0.000 A 
ATOM     14  C   UNL     1     -10.113   9.480  -3.580  0.00  0.00    +0.000 A 
ATOM     15  C   UNL     1      -9.890   8.559  -2.578  0.00  0.00    +0.000 A 
ATOM     16  C   UNL     1      -8.694   8.564  -1.875  0.00  0.00    +0.000 A 
ENDBRANCH   9  11
ENDBRANCH   4   9
BRANCH   5  17
ATOM     17  O   UNL     1      -5.430   7.357   0.008  0.00  0.00    +0.000 OA
ATOM     18  H   UNL     1      -4.592   6.874   0.217  0.00  0.00    +0.000 HD
ENDBRANCH   5  17
TORSDOF 4
ENDMDL
MODEL 9
REMARK VINA RESULT:      -4.0      5.800      8.359
REMARK  Name = ox2_orig_f8_ligand
REMARK  5 active torsions:
REMARK  status: ('A' for Active; 'I' for Inactive)
REMARK    1  A    between atoms: C_1  and  O_2
REMARK    2  A    between atoms: O_2  and  C_3
REMARK    3  A    between atoms: C_6  and  C_7
REMARK    4  A    between atoms: C_7  and  C_9
REMARK    5  A    between atoms: C_15  and  O_16
REMARK                            x       y       z     vdW  Elec       q    Type
REMARK                         _______ _______ _______ _____ _____    ______ ____
ROOT
ATOM      1  C   UNL     1      -1.796   8.658  -2.270  0.00  0.00    +0.000 A 
ATOM      2  C   UNL     1      -2.390   9.776  -1.723  0.00  0.00    +0.000 A 
ATOM      3  C   UNL     1      -2.704   9.814  -0.384  0.00  0.00    +0.000 A 
ATOM      4  C   UNL     1      -2.437   8.728   0.415  0.00  0.00    +0.000 A 
ATOM      5  C   UNL     1      -1.823   7.599  -0.126  0.00  0.00    +0.000 A 
ATOM      6  C   UNL     1      -1.511   7.576  -1.466  0.00  0.00    +0.000 A 
ENDROOT
BRANCH   1   8
ATOM      7  C   UNL     1      -0.466   7.927  -4.112  0.00  0.00    +0.000 C 
ATOM      8  O   UNL     1      -1.518   8.693  -3.601  0.00  0.00    +0.000 OA
ENDBRANCH   1   8
BRANCH   4   9
ATOM      9  C   UNL     1      -2.779   8.794   1.840  0.00  0.00    +0.000 C 
ATOM     10  O   UNL     1      -1.968   8.535   2.550  0.00  0.00    +0.000 OA
BRANCH   9  11
ATOM     11  C   UNL     1      -3.978   9.296   2.464  0.00  0.00    +0.000 A 
ATOM     12  C   UNL     1      -5.194   8.749   2.162  0.00  0.00    +0.000 A 
ATOM     13  C   UNL     1      -6.338   9.220   2.767  0.00  0.00    +0.000 A 
ATOM     14  C   UNL     1      -6.271  10.256   3.668  0.00  0.00    +0.000 A 
ATOM     15  C   UNL     1      -5.045  10.797   3.992  0.00  0.00    +0.000 A 
ATOM     16  C   UNL     1      -3.887  10.312   3.401  0.00  0.00    +0.000 A 
ENDBRANCH   9  11
ENDBRANCH   4   9
BRANCH   5  17
ATOM     17  O   UNL     1      -1.537   6.550   0.661  0.00  0.00    +0.000 OA
ATOM     18  H   UNL     1      -1.389   5.657   0.260  0.00  0.00    +0.000 HD
ENDBRANCH   5  17
TORSDOF 4
ENDMDL
