REMARK  Name = bgox31_2_ligand
REMARK  5 active torsions:
REMARK  status: ('A' for Active; 'I' for Inactive)
REMARK    1  A    between atoms: C_1  and  O_2
REMARK    2  A    between atoms: O_2  and  C_3
REMARK    3  A    between atoms: C_6  and  C_7
REMARK    4  A    between atoms: C_7  and  C_9
REMARK    5  A    between atoms: C_15  and  O_16
REMARK                            x       y       z     vdW  Elec       q    Type
REMARK                         _______ _______ _______ _____ _____    ______ ____
ROOT
ATOM      1  C   UNL     1       4.748  -7.086  -1.732  0.00  0.00    +0.000 A 
ATOM      2  C   UNL     1       5.214  -5.773  -1.622  0.00  0.00    +0.000 A 
ATOM      3  C   UNL     1       4.978  -4.870  -2.627  0.00  0.00    +0.000 A 
ATOM      4  C   UNL     1       4.274  -5.285  -3.724  0.00  0.00    +0.000 A 
ATOM      5  C   UNL     1       3.768  -6.571  -3.822  0.00  0.00    +0.000 A 
ATOM      6  C   UNL     1       4.005  -7.456  -2.815  0.00  0.00    +0.000 A 
ENDROOT
BRANCH   1   8
ATOM      7  C   UNL     1       4.970  -9.321  -1.078  0.00  0.00    +0.000 C 
ATOM      8  O   UNL     1       5.033  -7.954  -0.754  0.00  0.00    +0.000 OA
ENDBRANCH   1   8
BRANCH   4   9
ATOM      9  C   UNL     1       4.055  -4.291  -4.828  0.00  0.00    +0.000 C 
ATOM     10  O   UNL     1       3.021  -4.344  -5.434  0.00  0.00    +0.000 OA
BRANCH   9  11
ATOM     11  C   UNL     1       4.979  -3.226  -5.090  0.00  0.00    +0.000 A 
ATOM     12  C   UNL     1       4.476  -2.103  -5.706  0.00  0.00    +0.000 A 
ATOM     13  C   UNL     1       5.346  -1.087  -6.032  0.00  0.00    +0.000 A 
ATOM     14  C   UNL     1       6.677  -1.220  -5.718  0.00  0.00    +0.000 A 
ATOM     15  C   UNL     1       7.154  -2.300  -5.147  0.00  0.00    +0.000 A 
ATOM     16  C   UNL     1       6.284  -3.316  -4.811  0.00  0.00    +0.000 A 
ENDBRANCH   9  11
ENDBRANCH   4   9
BRANCH   5  17
ATOM     17  O   UNL     1       3.031  -6.888  -4.897  0.00  0.00    +0.000 OA
ATOM     18  H   UNL     1       2.658  -7.800  -4.990  0.00  0.00    +0.000 HD
ENDBRANCH   5  17
TORSDOF 4
