MODEL 1
REMARK VINA RESULT:      -4.2      0.000      0.000
REMARK  Name = bgox31_2_ligand
REMARK  5 active torsions:
REMARK  status: ('A' for Active; 'I' for Inactive)
REMARK    1  A    between atoms: C_1  and  O_2
REMARK    2  A    between atoms: O_2  and  C_3
REMARK    3  A    between atoms: C_6  and  C_7
REMARK    4  A    between atoms: C_7  and  C_9
REMARK    5  A    between atoms: C_15  and  O_16
REMARK                            x       y       z     vdW  Elec       q    Type
REMARK                         _______ _______ _______ _____ _____    ______ ____
ROOT
ATOM      1  C   UNL     1       1.080  -3.467  -6.429  0.00  0.00    +0.000 A 
ATOM      2  C   UNL     1       1.652  -2.192  -6.409  0.00  0.00    +0.000 A 
ATOM      3  C   UNL     1       0.906  -1.095  -6.758  0.00  0.00    +0.000 A 
ATOM      4  C   UNL     1      -0.401  -1.282  -7.115  0.00  0.00    +0.000 A 
ATOM      5  C   UNL     1      -0.990  -2.536  -7.094  0.00  0.00    +0.000 A 
ATOM      6  C   UNL     1      -0.240  -3.616  -6.740  0.00  0.00    +0.000 A 
ENDROOT
BRANCH   1   8
ATOM      7  C   UNL     1       1.783  -4.994  -4.803  0.00  0.00    +0.000 C 
ATOM      8  O   UNL     1       1.847  -4.521  -6.125  0.00  0.00    +0.000 OA
ENDBRANCH   1   8
BRANCH   4   9
ATOM      9  C   UNL     1      -1.191  -0.073  -7.526  0.00  0.00    +0.000 C 
ATOM     10  O   UNL     1      -1.441   0.064  -8.692  0.00  0.00    +0.000 OA
BRANCH   9  11
ATOM     11  C   UNL     1      -1.746   0.838  -6.568  0.00  0.00    +0.000 A 
ATOM     12  C   UNL     1      -3.089   0.713  -6.296  0.00  0.00    +0.000 A 
ATOM     13  C   UNL     1      -3.671   1.612  -5.430  0.00  0.00    +0.000 A 
ATOM     14  C   UNL     1      -2.891   2.587  -4.856  0.00  0.00    +0.000 A 
ATOM     15  C   UNL     1      -1.616   2.713  -5.133  0.00  0.00    +0.000 A 
ATOM     16  C   UNL     1      -1.028   1.809  -5.993  0.00  0.00    +0.000 A 
ENDBRANCH   9  11
ENDBRANCH   4   9
BRANCH   5  17
ATOM     17  O   UNL     1      -2.294  -2.635  -7.393  0.00  0.00    +0.000 OA
ATOM     18  H   UNL     1      -2.591  -3.237  -8.121  0.00  0.00    +0.000 HD
ENDBRANCH   5  17
TORSDOF 4
ENDMDL
MODEL 2
REMARK VINA RESULT:      -4.0      5.395      8.149
REMARK  Name = bgox31_2_ligand
REMARK  5 active torsions:
REMARK  status: ('A' for Active; 'I' for Inactive)
REMARK    1  A    between atoms: C_1  and  O_2
REMARK    2  A    between atoms: O_2  and  C_3
REMARK    3  A    between atoms: C_6  and  C_7
REMARK    4  A    between atoms: C_7  and  C_9
REMARK    5  A    between atoms: C_15  and  O_16
REMARK                            x       y       z     vdW  Elec       q    Type
REMARK                         _______ _______ _______ _____ _____    ______ ____
ROOT
ATOM      1  C   UNL     1       2.607 -10.028  -3.115  0.00  0.00    +0.000 A 
ATOM      2  C   UNL     1       2.574  -9.753  -4.485  0.00  0.00    +0.000 A 
ATOM      3  C   UNL     1       3.022  -8.546  -4.958  0.00  0.00    +0.000 A 
ATOM      4  C   UNL     1       3.503  -7.633  -4.061  0.00  0.00    +0.000 A 
ATOM      5  C   UNL     1       3.583  -7.913  -2.707  0.00  0.00    +0.000 A 
ATOM      6  C   UNL     1       3.140  -9.117  -2.251  0.00  0.00    +0.000 A 
ENDROOT
BRANCH   1   8
ATOM      7  C   UNL     1       3.036 -12.259  -2.558  0.00  0.00    +0.000 C 
ATOM      8  O   UNL     1       2.122 -11.198  -2.682  0.00  0.00    +0.000 OA
ENDBRANCH   1   8
BRANCH   4   9
ATOM      9  C   UNL     1       3.958  -6.305  -4.595  0.00  0.00    +0.000 C 
ATOM     10  O   UNL     1       5.137  -6.088  -4.632  0.00  0.00    +0.000 OA
BRANCH   9  11
ATOM     11  C   UNL     1       3.043  -5.357  -5.163  0.00  0.00    +0.000 A 
ATOM     12  C   UNL     1       3.441  -4.721  -6.316  0.00  0.00    +0.000 A 
ATOM     13  C   UNL     1       2.617  -3.758  -6.853  0.00  0.00    +0.000 A 
ATOM     14  C   UNL     1       1.423  -3.478  -6.234  0.00  0.00    +0.000 A 
ATOM     15  C   UNL     1       1.056  -4.075  -5.125  0.00  0.00    +0.000 A 
ATOM     16  C   UNL     1       1.875  -5.046  -4.589  0.00  0.00    +0.000 A 
ENDBRANCH   9  11
ENDBRANCH   4   9
BRANCH   5  17
ATOM     17  O   UNL     1       4.128  -6.995  -1.895  0.00  0.00    +0.000 OA
ATOM     18  H   UNL     1       5.089  -7.044  -1.666  0.00  0.00    +0.000 HD
ENDBRANCH   5  17
TORSDOF 4
ENDMDL
MODEL 3
REMARK VINA RESULT:      -3.9      2.935      8.028
REMARK  Name = bgox31_2_ligand
REMARK  5 active torsions:
REMARK  status: ('A' for Active; 'I' for Inactive)
REMARK    1  A    between atoms: C_1  and  O_2
REMARK    2  A    between atoms: O_2  and  C_3
REMARK    3  A    between atoms: C_6  and  C_7
REMARK    4  A    between atoms: C_7  and  C_9
REMARK    5  A    between atoms: C_15  and  O_16
REMARK                            x       y       z     vdW  Elec       q    Type
REMARK                         _______ _______ _______ _____ _____    ______ ____
ROOT
ATOM      1  C   UNL     1       1.206  -2.782  -6.329  0.00  0.00    +0.000 A 
ATOM      2  C   UNL     1       0.883  -3.322  -5.081  0.00  0.00    +0.000 A 
ATOM      3  C   UNL     1       1.384  -4.542  -4.706  0.00  0.00    +0.000 A 
ATOM      4  C   UNL     1       2.207  -5.204  -5.575  0.00  0.00    +0.000 A 
ATOM      5  C   UNL     1       2.570  -4.658  -6.795  0.00  0.00    +0.000 A 
ATOM      6  C   UNL     1       2.070  -3.443  -7.154  0.00  0.00    +0.000 A 
ENDROOT
BRANCH   1   8
ATOM      7  C   UNL     1      -0.653  -1.639  -7.172  0.00  0.00    +0.000 C 
ATOM      8  O   UNL     1       0.666  -1.610  -6.683  0.00  0.00    +0.000 OA
ENDBRANCH   1   8
BRANCH   4   9
ATOM      9  C   UNL     1       2.718  -6.554  -5.160  0.00  0.00    +0.000 C 
ATOM     10  O   UNL     1       2.316  -7.514  -5.755  0.00  0.00    +0.000 OA
BRANCH   9  11
ATOM     11  C   UNL     1       3.745  -6.709  -4.170  0.00  0.00    +0.000 A 
ATOM     12  C   UNL     1       5.033  -6.418  -4.559  0.00  0.00    +0.000 A 
ATOM     13  C   UNL     1       6.052  -6.618  -3.656  0.00  0.00    +0.000 A 
ATOM     14  C   UNL     1       5.750  -7.082  -2.398  0.00  0.00    +0.000 A 
ATOM     15  C   UNL     1       4.523  -7.374  -2.039  0.00  0.00    +0.000 A 
ATOM     16  C   UNL     1       3.498  -7.167  -2.938  0.00  0.00    +0.000 A 
ENDBRANCH   9  11
ENDBRANCH   4   9
BRANCH   5  17
ATOM     17  O   UNL     1       3.433  -5.335  -7.568  0.00  0.00    +0.000 OA
ATOM     18  H   UNL     1       3.095  -5.930  -8.283  0.00  0.00    +0.000 HD
ENDBRANCH   5  17
TORSDOF 4
ENDMDL
MODEL 4
REMARK VINA RESULT:      -3.8      3.776      8.879
REMARK  Name = bgox31_2_ligand
REMARK  5 active torsions:
REMARK  status: ('A' for Active; 'I' for Inactive)
REMARK    1  A    between atoms: C_1  and  O_2
REMARK    2  A    between atoms: O_2  and  C_3
REMARK    3  A    between atoms: C_6  and  C_7
REMARK    4  A    between atoms: C_7  and  C_9
REMARK    5  A    between atoms: C_15  and  O_16
REMARK                            x       y       z     vdW  Elec       q    Type
REMARK                         _______ _______ _______ _____ _____    ______ ____
ROOT
ATOM      1  C   UNL     1       1.949  -3.964  -6.285  0.00  0.00    +0.000 A 
ATOM      2  C   UNL     1       1.460  -4.479  -5.081  0.00  0.00    +0.000 A 
ATOM      3  C   UNL     1       2.181  -5.418  -4.388  0.00  0.00    +0.000 A 
ATOM      4  C   UNL     1       3.382  -5.825  -4.900  0.00  0.00    +0.000 A 
ATOM      5  C   UNL     1       3.897  -5.287  -6.069  0.00  0.00    +0.000 A 
ATOM      6  C   UNL     1       3.174  -4.351  -6.743  0.00  0.00    +0.000 A 
ENDROOT
BRANCH   1   8
ATOM      7  C   UNL     1      -0.175  -3.061  -6.668  0.00  0.00    +0.000 C 
ATOM      8  O   UNL     1       1.201  -3.081  -6.958  0.00  0.00    +0.000 OA
ENDBRANCH   1   8
BRANCH   4   9
ATOM      9  C   UNL     1       4.140  -6.878  -4.145  0.00  0.00    +0.000 C 
ATOM     10  O   UNL     1       5.245  -6.609  -3.762  0.00  0.00    +0.000 OA
BRANCH   9  11
ATOM     11  C   UNL     1       3.544  -8.128  -3.772  0.00  0.00    +0.000 A 
ATOM     12  C   UNL     1       3.000  -8.885  -4.785  0.00  0.00    +0.000 A 
ATOM     13  C   UNL     1       2.362 -10.059  -4.457  0.00  0.00    +0.000 A 
ATOM     14  C   UNL     1       2.303 -10.444  -3.140  0.00  0.00    +0.000 A 
ATOM     15  C   UNL     1       2.807  -9.710  -2.176  0.00  0.00    +0.000 A 
ATOM     16  C   UNL     1       3.456  -8.537  -2.502  0.00  0.00    +0.000 A 
ENDBRANCH   9  11
ENDBRANCH   4   9
BRANCH   5  17
ATOM     17  O   UNL     1       5.111  -5.686  -6.476  0.00  0.00    +0.000 OA
ATOM     18  H   UNL     1       5.495  -5.327  -7.314  0.00  0.00    +0.000 HD
ENDBRANCH   5  17
TORSDOF 4
ENDMDL
MODEL 5
REMARK VINA RESULT:      -3.8      1.810      5.741
REMARK  Name = bgox31_2_ligand
REMARK  5 active torsions:
REMARK  status: ('A' for Active; 'I' for Inactive)
REMARK    1  A    between atoms: C_1  and  O_2
REMARK    2  A    between atoms: O_2  and  C_3
REMARK    3  A    between atoms: C_6  and  C_7
REMARK    4  A    between atoms: C_7  and  C_9
REMARK    5  A    between atoms: C_15  and  O_16
REMARK                            x       y       z     vdW  Elec       q    Type
REMARK                         _______ _______ _______ _____ _____    ______ ____
ROOT
ATOM      1  C   UNL     1      -3.196   2.415  -5.023  0.00  0.00    +0.000 A 
ATOM      2  C   UNL     1      -1.806   2.477  -4.889  0.00  0.00    +0.000 A 
ATOM      3  C   UNL     1      -0.999   1.734  -5.712  0.00  0.00    +0.000 A 
ATOM      4  C   UNL     1      -1.588   0.945  -6.662  0.00  0.00    +0.000 A 
ATOM      5  C   UNL     1      -2.962   0.912  -6.834  0.00  0.00    +0.000 A 
ATOM      6  C   UNL     1      -3.751   1.659  -6.013  0.00  0.00    +0.000 A 
ENDROOT
BRANCH   1   8
ATOM      7  C   UNL     1      -5.091   3.751  -4.713  0.00  0.00    +0.000 C 
ATOM      8  O   UNL     1      -3.956   3.119  -4.175  0.00  0.00    +0.000 OA
ENDBRANCH   1   8
BRANCH   4   9
ATOM      9  C   UNL     1      -0.689   0.113  -7.531  0.00  0.00    +0.000 C 
ATOM     10  O   UNL     1      -0.307   0.591  -8.563  0.00  0.00    +0.000 OA
BRANCH   9  11
ATOM     11  C   UNL     1      -0.189  -1.163  -7.110  0.00  0.00    +0.000 A 
ATOM     12  C   UNL     1      -0.971  -2.261  -7.388  0.00  0.00    +0.000 A 
ATOM     13  C   UNL     1      -0.555  -3.495  -6.942  0.00  0.00    +0.000 A 
ATOM     14  C   UNL     1       0.630  -3.592  -6.253  0.00  0.00    +0.000 A 
ATOM     15  C   UNL     1       1.363  -2.540  -5.975  0.00  0.00    +0.000 A 
ATOM     16  C   UNL     1       0.953  -1.304  -6.428  0.00  0.00    +0.000 A 
ENDBRANCH   9  11
ENDBRANCH   4   9
BRANCH   5  17
ATOM     17  O   UNL     1      -3.465   0.166  -7.829  0.00  0.00    +0.000 OA
ATOM     18  H   UNL     1      -3.303  -0.810  -7.846  0.00  0.00    +0.000 HD
ENDBRANCH   5  17
TORSDOF 4
ENDMDL
MODEL 6
REMARK VINA RESULT:      -3.8      3.919      8.119
REMARK  Name = bgox31_2_ligand
REMARK  5 active torsions:
REMARK  status: ('A' for Active; 'I' for Inactive)
REMARK    1  A    between atoms: C_1  and  O_2
REMARK    2  A    between atoms: O_2  and  C_3
REMARK    3  A    between atoms: C_6  and  C_7
REMARK    4  A    between atoms: C_7  and  C_9
REMARK    5  A    between atoms: C_15  and  O_16
REMARK                            x       y       z     vdW  Elec       q    Type
REMARK                         _______ _______ _______ _____ _____    ______ ____
ROOT
ATOM      1  C   UNL     1       0.515  -3.530  -6.691  0.00  0.00    +0.000 A 
ATOM      2  C   UNL     1       0.519  -3.844  -5.330  0.00  0.00    +0.000 A 
ATOM      3  C   UNL     1       1.547  -4.577  -4.793  0.00  0.00    +0.000 A 
ATOM      4  C   UNL     1       2.561  -4.980  -5.619  0.00  0.00    +0.000 A 
ATOM      5  C   UNL     1       2.589  -4.634  -6.960  0.00  0.00    +0.000 A 
ATOM      6  C   UNL     1       1.565  -3.902  -7.479  0.00  0.00    +0.000 A 
ENDROOT
BRANCH   1   8
ATOM      7  C   UNL     1      -1.510  -3.598  -7.861  0.00  0.00    +0.000 C 
ATOM      8  O   UNL     1      -0.524  -2.851  -7.192  0.00  0.00    +0.000 OA
ENDBRANCH   1   8
BRANCH   4   9
ATOM      9  C   UNL     1       3.659  -5.810  -5.020  0.00  0.00    +0.000 C 
ATOM     10  O   UNL     1       4.765  -5.346  -5.000  0.00  0.00    +0.000 OA
BRANCH   9  11
ATOM     11  C   UNL     1       3.402  -7.064  -4.375  0.00  0.00    +0.000 A 
ATOM     12  C   UNL     1       3.662  -7.136  -3.025  0.00  0.00    +0.000 A 
ATOM     13  C   UNL     1       3.489  -8.342  -2.386  0.00  0.00    +0.000 A 
ATOM     14  C   UNL     1       3.049  -9.425  -3.108  0.00  0.00    +0.000 A 
ATOM     15  C   UNL     1       2.820  -9.356  -4.397  0.00  0.00    +0.000 A 
ATOM     16  C   UNL     1       2.984  -8.147  -5.040  0.00  0.00    +0.000 A 
ENDBRANCH   9  11
ENDBRANCH   4   9
BRANCH   5  17
ATOM     17  O   UNL     1       3.647  -5.009  -7.695  0.00  0.00    +0.000 OA
ATOM     18  H   UNL     1       4.208  -4.325  -8.139  0.00  0.00    +0.000 HD
ENDBRANCH   5  17
TORSDOF 4
ENDMDL
MODEL 7
REMARK VINA RESULT:      -3.7      2.498      4.025
REMARK  Name = bgox31_2_ligand
REMARK  5 active torsions:
REMARK  status: ('A' for Active; 'I' for Inactive)
REMARK    1  A    between atoms: C_1  and  O_2
REMARK    2  A    between atoms: O_2  and  C_3
REMARK    3  A    between atoms: C_6  and  C_7
REMARK    4  A    between atoms: C_7  and  C_9
REMARK    5  A    between atoms: C_15  and  O_16
REMARK                            x       y       z     vdW  Elec       q    Type
REMARK                         _______ _______ _______ _____ _____    ______ ____
ROOT
ATOM      1  C   UNL     1      -2.102  -0.986  -7.711  0.00  0.00    +0.000 A 
ATOM      2  C   UNL     1      -0.914  -0.361  -7.321  0.00  0.00    +0.000 A 
ATOM      3  C   UNL     1      -0.951   0.776  -6.555  0.00  0.00    +0.000 A 
ATOM      4  C   UNL     1      -2.170   1.270  -6.180  0.00  0.00    +0.000 A 
ATOM      5  C   UNL     1      -3.352   0.632  -6.522  0.00  0.00    +0.000 A 
ATOM      6  C   UNL     1      -3.301  -0.498  -7.279  0.00  0.00    +0.000 A 
ENDROOT
BRANCH   1   8
ATOM      7  C   UNL     1      -1.139  -3.081  -8.104  0.00  0.00    +0.000 C 
ATOM      8  O   UNL     1      -2.033  -2.068  -8.495  0.00  0.00    +0.000 OA
ENDBRANCH   1   8
BRANCH   4   9
ATOM      9  C   UNL     1      -2.190   2.534  -5.370  0.00  0.00    +0.000 C 
ATOM     10  O   UNL     1      -2.489   2.452  -4.211  0.00  0.00    +0.000 OA
BRANCH   9  11
ATOM     11  C   UNL     1      -1.753   3.790  -5.905  0.00  0.00    +0.000 A 
ATOM     12  C   UNL     1      -2.646   4.472  -6.700  0.00  0.00    +0.000 A 
ATOM     13  C   UNL     1      -2.238   5.651  -7.284  0.00  0.00    +0.000 A 
ATOM     14  C   UNL     1      -0.967   6.112  -7.042  0.00  0.00    +0.000 A 
ATOM     15  C   UNL     1      -0.114   5.449  -6.298  0.00  0.00    +0.000 A 
ATOM     16  C   UNL     1      -0.522   4.273  -5.704  0.00  0.00    +0.000 A 
ENDBRANCH   9  11
ENDBRANCH   4   9
BRANCH   5  17
ATOM     17  O   UNL     1      -4.507   1.138  -6.064  0.00  0.00    +0.000 OA
ATOM     18  H   UNL     1      -4.516   1.682  -5.237  0.00  0.00    +0.000 HD
ENDBRANCH   5  17
TORSDOF 4
ENDMDL
MODEL 8
REMARK VINA RESULT:      -3.7      3.662      5.726
REMARK  Name = bgox31_2_ligand
REMARK  5 active torsions:
REMARK  status: ('A' for Active; 'I' for Inactive)
REMARK    1  A    between atoms: C_1  and  O_2
REMARK    2  A    between atoms: O_2  and  C_3
REMARK    3  A    between atoms: C_6  and  C_7
REMARK    4  A    between atoms: C_7  and  C_9
REMARK    5  A    between atoms: C_15  and  O_16
REMARK                            x       y       z     vdW  Elec       q    Type
REMARK                         _______ _______ _______ _____ _____    ______ ____
ROOT
ATOM      1  C   UNL     1       3.221  -7.788  -4.389  0.00  0.00    +0.000 A 
ATOM      2  C   UNL     1       3.152  -6.508  -3.832  0.00  0.00    +0.000 A 
ATOM      3  C   UNL     1       2.377  -5.540  -4.419  0.00  0.00    +0.000 A 
ATOM      4  C   UNL     1       1.676  -5.863  -5.549  0.00  0.00    +0.000 A 
ATOM      5  C   UNL     1       1.702  -7.142  -6.082  0.00  0.00    +0.000 A 
ATOM      6  C   UNL     1       2.470  -8.094  -5.487  0.00  0.00    +0.000 A 
ENDROOT
BRANCH   1   8
ATOM      7  C   UNL     1       3.780  -8.992  -2.463  0.00  0.00    +0.000 C 
ATOM      8  O   UNL     1       4.020  -8.696  -3.817  0.00  0.00    +0.000 OA
ENDBRANCH   1   8
BRANCH   4   9
ATOM      9  C   UNL     1       0.861  -4.781  -6.196  0.00  0.00    +0.000 C 
ATOM     10  O   UNL     1      -0.316  -4.972  -6.335  0.00  0.00    +0.000 OA
BRANCH   9  11
ATOM     11  C   UNL     1       1.419  -3.504  -6.533  0.00  0.00    +0.000 A 
ATOM     12  C   UNL     1       2.484  -3.501  -7.405  0.00  0.00    +0.000 A 
ATOM     13  C   UNL     1       3.087  -2.299  -7.701  0.00  0.00    +0.000 A 
ATOM     14  C   UNL     1       2.597  -1.148  -7.133  0.00  0.00    +0.000 A 
ATOM     15  C   UNL     1       1.594  -1.158  -6.289  0.00  0.00    +0.000 A 
ATOM     16  C   UNL     1       0.981  -2.359  -5.997  0.00  0.00    +0.000 A 
ENDBRANCH   9  11
ENDBRANCH   4   9
BRANCH   5  17
ATOM     17  O   UNL     1       0.937  -7.403  -7.153  0.00  0.00    +0.000 OA
ATOM     18  H   UNL     1       1.314  -7.314  -8.064  0.00  0.00    +0.000 HD
ENDBRANCH   5  17
TORSDOF 4
ENDMDL
MODEL 9
REMARK VINA RESULT:      -3.7      8.891     11.024
REMARK  Name = bgox31_2_ligand
REMARK  5 active torsions:
REMARK  status: ('A' for Active; 'I' for Inactive)
REMARK    1  A    between atoms: C_1  and  O_2
REMARK    2  A    between atoms: O_2  and  C_3
REMARK    3  A    between atoms: C_6  and  C_7
REMARK    4  A    between atoms: C_7  and  C_9
REMARK    5  A    between atoms: C_15  and  O_16
REMARK                            x       y       z     vdW  Elec       q    Type
REMARK                         _______ _______ _______ _____ _____    ______ ____
ROOT
ATOM      1  C   UNL     1       8.435   3.389  -2.862  0.00  0.00    +0.000 A 
ATOM      2  C   UNL     1       9.413   2.453  -2.512  0.00  0.00    +0.000 A 
ATOM      3  C   UNL     1       9.105   1.118  -2.464  0.00  0.00    +0.000 A 
ATOM      4  C   UNL     1       7.830   0.731  -2.773  0.00  0.00    +0.000 A 
ATOM      5  C   UNL     1       6.866   1.645  -3.165  0.00  0.00    +0.000 A 
ATOM      6  C   UNL     1       7.186   2.968  -3.214  0.00  0.00    +0.000 A 
ENDROOT
BRANCH   1   8
ATOM      7  C   UNL     1       9.129   5.246  -1.621  0.00  0.00    +0.000 C 
ATOM      8  O   UNL     1       8.756   4.688  -2.857  0.00  0.00    +0.000 OA
ENDBRANCH   1   8
BRANCH   4   9
ATOM      9  C   UNL     1       7.504  -0.732  -2.682  0.00  0.00    +0.000 C 
ATOM     10  O   UNL     1       7.375  -1.343  -3.706  0.00  0.00    +0.000 OA
BRANCH   9  11
ATOM     11  C   UNL     1       7.464  -1.428  -1.428  0.00  0.00    +0.000 A 
ATOM     12  C   UNL     1       8.174  -2.604  -1.347  0.00  0.00    +0.000 A 
ATOM     13  C   UNL     1       8.106  -3.333  -0.181  0.00  0.00    +0.000 A 
ATOM     14  C   UNL     1       7.351  -2.856   0.863  0.00  0.00    +0.000 A 
ATOM     15  C   UNL     1       6.662  -1.743   0.774  0.00  0.00    +0.000 A 
ATOM     16  C   UNL     1       6.734  -1.006  -0.390  0.00  0.00    +0.000 A 
ENDBRANCH   9  11
ENDBRANCH   4   9
BRANCH   5  17
ATOM     17  O   UNL     1       5.655   1.187  -3.517  0.00  0.00    +0.000 OA
ATOM     18  H   UNL     1       4.892   1.276  -2.893  0.00  0.00    +0.000 HD
ENDBRANCH   5  17
TORSDOF 4
ENDMDL
