REMARK  Name = ox3_orig_f8_ligand
REMARK  5 active torsions:
REMARK  status: ('A' for Active; 'I' for Inactive)
REMARK    1  A    between atoms: C_1  and  O_2
REMARK    2  A    between atoms: O_2  and  C_3
REMARK    3  A    between atoms: C_6  and  C_7
REMARK    4  A    between atoms: C_7  and  C_9
REMARK    5  A    between atoms: C_15  and  O_16
REMARK                            x       y       z     vdW  Elec       q    Type
REMARK                         _______ _______ _______ _____ _____    ______ ____
ROOT
ATOM      1  C   UNL     1       2.233  -6.374  11.132  0.00  0.00    +0.000 A 
ATOM      2  C   UNL     1       1.227  -5.408  11.069  0.00  0.00    +0.000 A 
ATOM      3  C   UNL     1       1.306  -4.385  10.137  0.00  0.00    +0.000 A 
ATOM      4  C   UNL     1       2.382  -4.313   9.258  0.00  0.00    +0.000 A 
ATOM      5  C   UNL     1       3.387  -5.277   9.338  0.00  0.00    +0.000 A 
ATOM      6  C   UNL     1       3.302  -6.299  10.276  0.00  0.00    +0.000 A 
ENDROOT
BRANCH   1   8
ATOM      7  C   UNL     1       1.173  -7.472  13.022  0.00  0.00    +0.000 C 
ATOM      8  O   UNL     1       2.202  -7.410  12.034  0.00  0.00    +0.000 OA
ENDBRANCH   1   8
BRANCH   4   9
ATOM      9  C   UNL     1       2.487  -3.204   8.250  0.00  0.00    +0.000 C 
ATOM     10  O   UNL     1       3.492  -3.129   7.585  0.00  0.00    +0.000 OA
BRANCH   9  11
ATOM     11  C   UNL     1       1.423  -2.185   8.072  0.00  0.00    +0.000 A 
ATOM     12  C   UNL     1       0.091  -2.546   7.920  0.00  0.00    +0.000 A 
ATOM     13  C   UNL     1      -0.873  -1.575   7.719  0.00  0.00    +0.000 A 
ATOM     14  C   UNL     1      -0.539  -0.235   7.718  0.00  0.00    +0.000 A 
ATOM     15  C   UNL     1       0.789   0.134   7.854  0.00  0.00    +0.000 A 
ATOM     16  C   UNL     1       1.778  -0.838   8.010  0.00  0.00    +0.000 A 
ENDBRANCH   9  11
ENDBRANCH   4   9
BRANCH   5  17
ATOM     17  O   UNL     1       4.457  -5.201   8.498  0.00  0.00    +0.000 OA
ATOM     18  H   UNL     1       5.175  -5.882   8.547  0.00  0.00    +0.000 HD
ENDBRANCH   5  17
TORSDOF 4
