REMARK  Name = /Users/cafierom/python_mac/peptidebuilder/runs/oxybenzone/dock/ox3_orig_f8_esmapo/ox3_orig_f8_esmapo_protein.pdb
REMARK                            x       y       z     vdW  Elec       q    Type
REMARK                         _______ _______ _______ _____ _____    ______ ____
ATOM      1  N   ASP A   1     -29.362 -11.146  16.542  0.00  0.00    +0.000 NA
ATOM      2  CA  ASP A   1     -28.015 -11.669  16.745  0.00  0.00    +0.000 C 
ATOM      3  C   ASP A   1     -26.964 -10.715  16.181  0.00  0.00    +0.000 C 
ATOM      4  CB  ASP A   1     -27.872 -13.049  16.099  0.00  0.00    +0.000 C 
ATOM      5  O   ASP A   1     -27.129 -10.182  15.081  0.00  0.00    +0.000 OA
ATOM      6  CG  ASP A   1     -26.931 -13.966  16.861  0.00  0.00    +0.000 C 
ATOM      7  OD1 ASP A   1     -26.377 -13.545  17.899  0.00  0.00    +0.000 OA
ATOM      8  OD2 ASP A   1     -26.739 -15.118  16.417  0.00  0.00    +0.000 OA
ATOM      9  N   GLY A   2     -26.542  -9.576  16.872  0.00  0.00    +0.000 NA
ATOM     10  CA  GLY A   2     -25.549  -8.562  16.552  0.00  0.00    +0.000 C 
ATOM     11  C   GLY A   2     -24.513  -9.037  15.551  0.00  0.00    +0.000 C 
ATOM     12  O   GLY A   2     -24.114 -10.203  15.568  0.00  0.00    +0.000 OA
ATOM     13  N   GLY A   3     -24.550  -8.785  14.440  0.00  0.00    +0.000 N 
ATOM     14  CA  GLY A   3     -23.603  -9.017  13.361  0.00  0.00    +0.000 C 
ATOM     15  C   GLY A   3     -22.163  -9.077  13.835  0.00  0.00    +0.000 C 
ATOM     16  O   GLY A   3     -21.838  -8.581  14.915  0.00  0.00    +0.000 OA
ATOM     17  N   GLU A   4     -21.442 -10.035  13.705  0.00  0.00    +0.000 N 
ATOM     18  CA  GLU A   4     -20.014 -10.159  13.982  0.00  0.00    +0.000 C 
ATOM     19  C   GLU A   4     -19.288  -8.840  13.734  0.00  0.00    +0.000 C 
ATOM     20  CB  GLU A   4     -19.395 -11.269  13.129  0.00  0.00    +0.000 C 
ATOM     21  O   GLU A   4     -19.625  -8.105  12.803  0.00  0.00    +0.000 OA
ATOM     22  CG  GLU A   4     -18.050 -11.762  13.643  0.00  0.00    +0.000 C 
ATOM     23  CD  GLU A   4     -17.474 -12.902  12.818  0.00  0.00    +0.000 C 
ATOM     24  OE1 GLU A   4     -18.254 -13.641  12.176  0.00  0.00    +0.000 OA
ATOM     25  OE2 GLU A   4     -16.232 -13.057  12.815  0.00  0.00    +0.000 OA
ATOM     26  N   GLY A   5     -18.826  -8.131  14.765  0.00  0.00    +0.000 N 
ATOM     27  CA  GLY A   5     -17.910  -7.001  14.753  0.00  0.00    +0.000 C 
ATOM     28  C   GLY A   5     -16.954  -7.021  13.575  0.00  0.00    +0.000 C 
ATOM     29  O   GLY A   5     -16.540  -8.090  13.122  0.00  0.00    +0.000 OA
ATOM     30  N   GLY A   6     -16.995  -6.108  12.739  0.00  0.00    +0.000 N 
ATOM     31  CA  GLY A   6     -16.120  -5.863  11.604  0.00  0.00    +0.000 C 
ATOM     32  C   GLY A   6     -14.650  -6.038  11.936  0.00  0.00    +0.000 C 
ATOM     33  O   GLY A   6     -14.261  -5.985  13.105  0.00  0.00    +0.000 OA
ATOM     34  N   ILE A   7     -13.767  -6.834  11.336  0.00  0.00    +0.000 N 
ATOM     35  CA  ILE A   7     -12.311  -6.912  11.402  0.00  0.00    +0.000 C 
ATOM     36  C   ILE A   7     -11.730  -5.520  11.639  0.00  0.00    +0.000 C 
ATOM     37  CB  ILE A   7     -11.719  -7.529  10.115  0.00  0.00    +0.000 C 
ATOM     38  O   ILE A   7     -12.167  -4.545  11.021  0.00  0.00    +0.000 OA
ATOM     39  CG1 ILE A   7     -12.258  -8.948   9.906  0.00  0.00    +0.000 C 
ATOM     40  CG2 ILE A   7     -10.189  -7.527  10.170  0.00  0.00    +0.000 C 
ATOM     41  CD1 ILE A   7     -11.795  -9.602   8.612  0.00  0.00    +0.000 C 
ATOM     42  N   GLY A   8     -11.189  -5.146  12.891  0.00  0.00    +0.000 N 
ATOM     43  CA  GLY A   8     -10.438  -3.949  13.233  0.00  0.00    +0.000 C 
ATOM     44  C   GLY A   8      -9.492  -3.504  12.134  0.00  0.00    +0.000 C 
ATOM     45  O   GLY A   8      -9.074  -4.312  11.302  0.00  0.00    +0.000 OA
ATOM     46  N   GLY A   9      -9.582  -2.322  11.693  0.00  0.00    +0.000 N 
ATOM     47  CA  GLY A   9      -8.733  -1.672  10.708  0.00  0.00    +0.000 C 
ATOM     48  C   GLY A   9      -7.266  -2.027  10.859  0.00  0.00    +0.000 C 
ATOM     49  O   GLY A   9      -6.818  -2.390  11.948  0.00  0.00    +0.000 OA
ATOM     50  N   GLY A  10      -6.553  -2.620   9.890  0.00  0.00    +0.000 N 
ATOM     51  CA  GLY A  10      -5.124  -2.863   9.771  0.00  0.00    +0.000 C 
ATOM     52  C   GLY A  10      -4.278  -1.742  10.345  0.00  0.00    +0.000 C 
ATOM     53  O   GLY A  10      -4.749  -0.610  10.482  0.00  0.00    +0.000 OA
ATOM     54  N   SER A  11      -3.307  -1.880  11.483  0.00  0.00    +0.000 N 
ATOM     55  CA  SER A  11      -2.256  -0.972  11.928  0.00  0.00    +0.000 C 
ATOM     56  C   SER A  11      -1.843  -0.016  10.813  0.00  0.00    +0.000 C 
ATOM     57  CB  SER A  11      -1.038  -1.758  12.414  0.00  0.00    +0.000 C 
ATOM     58  O   SER A  11      -1.912  -0.365   9.633  0.00  0.00    +0.000 OA
ATOM     59  OG  SER A  11      -0.494  -2.542  11.366  0.00  0.00    +0.000 OA
ATOM     60  N   GLY A  12      -2.290   1.251  10.890  0.00  0.00    +0.000 N 
ATOM     61  CA  GLY A  12      -1.770   2.320  10.053  0.00  0.00    +0.000 C 
ATOM     62  C   GLY A  12      -0.536   1.917   9.268  0.00  0.00    +0.000 C 
ATOM     63  O   GLY A  12       0.249   1.082   9.722  0.00  0.00    +0.000 OA
ATOM     64  N   GLY A  13      -0.660   1.748   8.015  0.00  0.00    +0.000 N 
ATOM     65  CA  GLY A  13       0.262   1.493   6.920  0.00  0.00    +0.000 C 
ATOM     66  C   GLY A  13       1.567   2.257   7.048  0.00  0.00    +0.000 C 
ATOM     67  O   GLY A  13       1.599   3.348   7.622  0.00  0.00    +0.000 OA
ATOM     68  N   TRP A  14       2.644   1.647   7.631  0.00  0.00    +0.000 NA
ATOM     69  CA  TRP A  14       4.068   1.896   7.437  0.00  0.00    +0.000 C 
ATOM     70  C   TRP A  14       4.294   2.968   6.377  0.00  0.00    +0.000 C 
ATOM     71  CB  TRP A  14       4.790   0.606   7.038  0.00  0.00    +0.000 C 
ATOM     72  O   TRP A  14       3.611   2.990   5.351  0.00  0.00    +0.000 OA
ATOM     73  CG  TRP A  14       4.689  -0.489   8.057  0.00  0.00    +0.000 C 
ATOM     74  CD1 TRP A  14       3.553  -1.127   8.472  0.00  0.00    +0.000 C 
ATOM     75  CD2 TRP A  14       5.769  -1.072   8.794  0.00  0.00    +0.000 C 
ATOM     76  CE2 TRP A  14       5.213  -2.059   9.638  0.00  0.00    +0.000 C 
ATOM     77  CE3 TRP A  14       7.153  -0.856   8.822  0.00  0.00    +0.000 C 
ATOM     78  NE1 TRP A  14       3.862  -2.072   9.423  0.00  0.00    +0.000 NA
ATOM     79  CH2 TRP A  14       7.347  -2.597  10.510  0.00  0.00    +0.000 C 
ATOM     80  CZ2 TRP A  14       5.996  -2.828  10.502  0.00  0.00    +0.000 C 
ATOM     81  CZ3 TRP A  14       7.930  -1.623   9.682  0.00  0.00    +0.000 C 
ATOM     82  N   GLY A  15       4.509   4.234   6.632  0.00  0.00    +0.000 N 
ATOM     83  CA  GLY A  15       5.381   5.335   6.257  0.00  0.00    +0.000 C 
ATOM     84  C   GLY A  15       5.370   5.625   4.767  0.00  0.00    +0.000 C 
ATOM     85  O   GLY A  15       5.117   4.730   3.958  0.00  0.00    +0.000 OA
ATOM     86  N   ASP A  16       4.685   6.630   4.289  0.00  0.00    +0.000 NA
ATOM     87  CA  ASP A  16       4.788   7.341   3.019  0.00  0.00    +0.000 C 
ATOM     88  C   ASP A  16       5.407   6.453   1.941  0.00  0.00    +0.000 C 
ATOM     89  CB  ASP A  16       5.612   8.620   3.184  0.00  0.00    +0.000 C 
ATOM     90  O   ASP A  16       6.350   5.707   2.211  0.00  0.00    +0.000 OA
ATOM     91  CG  ASP A  16       4.999   9.597   4.172  0.00  0.00    +0.000 C 
ATOM     92  OD1 ASP A  16       3.763   9.581   4.358  0.00  0.00    +0.000 OA
ATOM     93  OD2 ASP A  16       5.758  10.392   4.767  0.00  0.00    +0.000 OA
ATOM     94  N   GLY A  17       4.620   5.893   1.191  0.00  0.00    +0.000 N 
ATOM     95  CA  GLY A  17       4.700   5.401  -0.175  0.00  0.00    +0.000 C 
ATOM     96  C   GLY A  17       6.011   5.740  -0.857  0.00  0.00    +0.000 C 
ATOM     97  O   GLY A  17       6.589   6.801  -0.610  0.00  0.00    +0.000 OA
ATOM     98  N   PHE A  18       7.042   4.842  -0.761  0.00  0.00    +0.000 NA
ATOM     99  CA  PHE A  18       8.134   4.858  -1.727  0.00  0.00    +0.000 C 
ATOM    100  C   PHE A  18       7.745   5.648  -2.970  0.00  0.00    +0.000 C 
ATOM    101  CB  PHE A  18       8.532   3.431  -2.114  0.00  0.00    +0.000 C 
ATOM    102  O   PHE A  18       6.601   5.577  -3.425  0.00  0.00    +0.000 OA
ATOM    103  CG  PHE A  18       9.048   2.610  -0.963  0.00  0.00    +0.000 A 
ATOM    104  CD1 PHE A  18      10.385   2.673  -0.591  0.00  0.00    +0.000 A 
ATOM    105  CD2 PHE A  18       8.195   1.775  -0.253  0.00  0.00    +0.000 A 
ATOM    106  CE1 PHE A  18      10.865   1.915   0.475  0.00  0.00    +0.000 A 
ATOM    107  CE2 PHE A  18       8.668   1.015   0.813  0.00  0.00    +0.000 A 
ATOM    108  CZ  PHE A  18      10.003   1.085   1.174  0.00  0.00    +0.000 A 
ATOM    109  N   GLY A  19       8.213   6.879  -3.057  0.00  0.00    +0.000 N 
ATOM    110  CA  GLY A  19       8.399   7.751  -4.207  0.00  0.00    +0.000 C 
ATOM    111  C   GLY A  19       8.307   7.018  -5.532  0.00  0.00    +0.000 C 
ATOM    112  O   GLY A  19       8.590   5.820  -5.606  0.00  0.00    +0.000 OA
ATOM    113  N   GLY A  20       7.305   7.335  -6.327  0.00  0.00    +0.000 N 
ATOM    114  CA  GLY A  20       6.960   7.030  -7.707  0.00  0.00    +0.000 C 
ATOM    115  C   GLY A  20       8.114   6.439  -8.494  0.00  0.00    +0.000 C 
ATOM    116  O   GLY A  20       9.279   6.671  -8.166  0.00  0.00    +0.000 OA
ATOM    117  N   GLY A  21       7.918   5.187  -9.024  0.00  0.00    +0.000 N 
ATOM    118  CA  GLY A  21       8.784   4.493  -9.964  0.00  0.00    +0.000 C 
ATOM    119  C   GLY A  21       9.418   5.417 -10.986  0.00  0.00    +0.000 C 
ATOM    120  O   GLY A  21       8.898   6.501 -11.257  0.00  0.00    +0.000 OA
ATOM    121  N   LEU A  22      10.763   5.494 -11.192  0.00  0.00    +0.000 N 
ATOM    122  CA  LEU A  22      11.507   6.131 -12.273  0.00  0.00    +0.000 C 
ATOM    123  C   LEU A  22      10.719   6.082 -13.577  0.00  0.00    +0.000 C 
ATOM    124  CB  LEU A  22      12.867   5.453 -12.459  0.00  0.00    +0.000 C 
ATOM    125  O   LEU A  22      10.076   5.076 -13.882  0.00  0.00    +0.000 OA
ATOM    126  CG  LEU A  22      13.795   5.450 -11.243  0.00  0.00    +0.000 C 
ATOM    127  CD1 LEU A  22      14.993   4.540 -11.493  0.00  0.00    +0.000 C 
ATOM    128  CD2 LEU A  22      14.253   6.867 -10.916  0.00  0.00    +0.000 C 
ATOM    129  N   GLY A  23      10.195   7.219 -14.014  0.00  0.00    +0.000 N 
ATOM    130  CA  GLY A  23       9.678   7.450 -15.354  0.00  0.00    +0.000 C 
ATOM    131  C   GLY A  23      10.357   6.601 -16.411  0.00  0.00    +0.000 C 
ATOM    132  O   GLY A  23      11.521   6.224 -16.258  0.00  0.00    +0.000 OA
ATOM    133  N   GLY A  24       9.651   5.827 -17.054  0.00  0.00    +0.000 N 
ATOM    134  CA  GLY A  24      10.049   5.049 -18.216  0.00  0.00    +0.000 C 
ATOM    135  C   GLY A  24      10.958   5.812 -19.161  0.00  0.00    +0.000 C 
ATOM    136  O   GLY A  24      10.972   7.044 -19.158  0.00  0.00    +0.000 OA
ATOM    137  N   TYR A  25      12.092   5.436 -19.551  0.00  0.00    +0.000 N 
ATOM    138  CA  TYR A  25      12.832   5.902 -20.718  0.00  0.00    +0.000 C 
ATOM    139  C   TYR A  25      11.884   6.301 -21.842  0.00  0.00    +0.000 C 
ATOM    140  CB  TYR A  25      13.799   4.821 -21.209  0.00  0.00    +0.000 C 
ATOM    141  O   TYR A  25      10.898   5.608 -22.106  0.00  0.00    +0.000 OA
ATOM    142  CG  TYR A  25      14.996   4.622 -20.310  0.00  0.00    +0.000 A 
ATOM    143  CD1 TYR A  25      16.161   5.362 -20.496  0.00  0.00    +0.000 A 
ATOM    144  CD2 TYR A  25      14.963   3.695 -19.275  0.00  0.00    +0.000 A 
ATOM    145  CE1 TYR A  25      17.267   5.181 -19.671  0.00  0.00    +0.000 A 
ATOM    146  CE2 TYR A  25      16.063   3.505 -18.444  0.00  0.00    +0.000 A 
ATOM    147  OH  TYR A  25      18.299   4.069 -17.830  0.00  0.00    +0.000 OA
ATOM    148  CZ  TYR A  25      17.208   4.252 -18.649  0.00  0.00    +0.000 A 
ATOM    149  N   GLY A  26      11.693   7.552 -22.002  0.00  0.00    +0.000 N 
ATOM    150  CA  GLY A  26      11.121   8.161 -23.193  0.00  0.00    +0.000 C 
ATOM    151  C   GLY A  26      11.471   7.420 -24.469  0.00  0.00    +0.000 C 
ATOM    152  O   GLY A  26      12.523   6.783 -24.555  0.00  0.00    +0.000 OA
ATOM    153  N   SER A  27      10.590   6.776 -25.236  0.00  0.00    +0.000 N 
ATOM    154  CA  SER A  27      10.819   6.221 -26.567  0.00  0.00    +0.000 C 
ATOM    155  C   SER A  27      11.828   7.056 -27.348  0.00  0.00    +0.000 C 
ATOM    156  CB  SER A  27       9.506   6.134 -27.345  0.00  0.00    +0.000 C 
ATOM    157  O   SER A  27      11.995   8.248 -27.080  0.00  0.00    +0.000 OA
ATOM    158  OG  SER A  27       8.924   7.417 -27.496  0.00  0.00    +0.000 OA
ATOM    159  H   ASP A   1     -30.043 -11.801  16.927  0.00  0.00    +0.000 HD
ATOM    160  H   ASP A   1     -29.533 -11.025  15.544  0.00  0.00    +0.000 HD
ATOM    161  H   ASP A   1     -27.766  -9.456  15.166  0.00  0.00    +0.000 HD
ATOM    162  H   ASP A   1     -26.547 -12.674  18.200  0.00  0.00    +0.000 HD
ATOM    163  H   GLY A   2     -26.231  -9.942  17.772  0.00  0.00    +0.000 HD
ATOM    164  H   GLY A   3     -25.374  -8.326  14.159  0.00  0.00    +0.000 HD
ATOM    165  H   GLU A   4     -21.878 -10.849  13.364  0.00  0.00    +0.000 HD
ATOM    166  H   GLU A   4     -15.687 -12.479  13.311  0.00  0.00    +0.000 HD
ATOM    167  H   GLY A   5     -19.148  -8.410  15.653  0.00  0.00    +0.000 HD
ATOM    168  H   GLY A   6     -17.723  -5.456  12.860  0.00  0.00    +0.000 HD
ATOM    169  H   ILE A   7     -14.174  -7.497  10.732  0.00  0.00    +0.000 HD
ATOM    170  H   GLY A   8     -11.341  -5.780  13.629  0.00  0.00    +0.000 HD
ATOM    171  H   GLY A   9     -10.315  -1.777  12.061  0.00  0.00    +0.000 HD
ATOM    172  H   GLY A  10      -7.088  -2.946   9.130  0.00  0.00    +0.000 HD
ATOM    173  H   SER A  11      -3.393  -2.709  12.008  0.00  0.00    +0.000 HD
ATOM    174  H   SER A  11      -0.213  -1.962  10.641  0.00  0.00    +0.000 HD
ATOM    175  H   GLY A  12      -2.998   1.463  11.540  0.00  0.00    +0.000 HD
ATOM    176  H   GLY A  13      -1.597   1.802   7.717  0.00  0.00    +0.000 HD
ATOM    177  H   GLY A  13       1.540   3.211   8.580  0.00  0.00    +0.000 HD
ATOM    178  H   TRP A  14       2.528   0.660   7.402  0.00  0.00    +0.000 HD
ATOM    179  H   GLY A  15       3.861   4.546   7.305  0.00  0.00    +0.000 HD
ATOM    180  H   GLY A  15       4.160   4.572   3.940  0.00  0.00    +0.000 HD
ATOM    181  H   ASP A  16       3.721   6.298   4.306  0.00  0.00    +0.000 HD
ATOM    182  H   ASP A  16       6.680  10.373   4.600  0.00  0.00    +0.000 HD
ATOM    183  H   GLY A  17       3.738   5.742   1.603  0.00  0.00    +0.000 HD
ATOM    184  H   GLY A  17       7.007   6.746   0.264  0.00  0.00    +0.000 HD
ATOM    185  H   PHE A  18       7.463   4.979   0.158  0.00  0.00    +0.000 HD
ATOM    186  H   GLY A  19       8.482   7.275  -2.197  0.00  0.00    +0.000 HD
ATOM    187  H   GLY A  20       6.638   7.909  -5.887  0.00  0.00    +0.000 HD
ATOM    188  H   GLY A  21       7.106   4.709  -8.738  0.00  0.00    +0.000 HD
ATOM    189  H   LEU A  22      11.316   5.053 -10.508  0.00  0.00    +0.000 HD
ATOM    190  H   GLY A  23      10.152   7.970 -13.378  0.00  0.00    +0.000 HD
ATOM    191  H   GLY A  24       8.720   5.723 -16.751  0.00  0.00    +0.000 HD
ATOM    192  H   TYR A  25      12.533   4.746 -19.004  0.00  0.00    +0.000 HD
ATOM    193  H   TYR A  25      19.077   4.574 -17.966  0.00  0.00    +0.000 HD
ATOM    194  H   GLY A  26      11.952   8.150 -21.264  0.00  0.00    +0.000 HD
ATOM    195  H   SER A  27       9.686   6.662 -24.864  0.00  0.00    +0.000 HD
ATOM    196  H   SER A  27       9.531   7.992 -27.988  0.00  0.00    +0.000 HD
TER 
