MODEL 1
REMARK VINA RESULT:      -4.5      0.000      0.000
REMARK  Name = ox3_orig_f8_ligand
REMARK  5 active torsions:
REMARK  status: ('A' for Active; 'I' for Inactive)
REMARK    1  A    between atoms: C_1  and  O_2
REMARK    2  A    between atoms: O_2  and  C_3
REMARK    3  A    between atoms: C_6  and  C_7
REMARK    4  A    between atoms: C_7  and  C_9
REMARK    5  A    between atoms: C_15  and  O_16
REMARK                            x       y       z     vdW  Elec       q    Type
REMARK                         _______ _______ _______ _____ _____    ______ ____
ROOT
ATOM      1  C   UNL     1       8.852   2.298   4.978  0.00  0.00    +0.000 A 
ATOM      2  C   UNL     1       9.376   1.011   5.111  0.00  0.00    +0.000 A 
ATOM      3  C   UNL     1       8.626  -0.087   4.721  0.00  0.00    +0.000 A 
ATOM      4  C   UNL     1       7.350   0.082   4.192  0.00  0.00    +0.000 A 
ATOM      5  C   UNL     1       6.832   1.372   4.074  0.00  0.00    +0.000 A 
ATOM      6  C   UNL     1       7.589   2.468   4.469  0.00  0.00    +0.000 A 
ENDROOT
BRANCH   1   8
ATOM      7  C   UNL     1       9.056   4.718   5.021  0.00  0.00    +0.000 C 
ATOM      8  O   UNL     1       9.554   3.420   5.347  0.00  0.00    +0.000 OA
ENDBRANCH   1   8
BRANCH   4   9
ATOM      9  C   UNL     1       6.521  -1.099   3.774  0.00  0.00    +0.000 C 
ATOM     10  O   UNL     1       6.218  -1.202   2.610  0.00  0.00    +0.000 OA
BRANCH   9  11
ATOM     11  C   UNL     1       6.034  -2.113   4.742  0.00  0.00    +0.000 A 
ATOM     12  C   UNL     1       6.904  -2.778   5.596  0.00  0.00    +0.000 A 
ATOM     13  C   UNL     1       6.424  -3.744   6.461  0.00  0.00    +0.000 A 
ATOM     14  C   UNL     1       5.075  -4.028   6.529  0.00  0.00    +0.000 A 
ATOM     15  C   UNL     1       4.201  -3.380   5.670  0.00  0.00    +0.000 A 
ATOM     16  C   UNL     1       4.678  -2.437   4.759  0.00  0.00    +0.000 A 
ENDBRANCH   9  11
ENDBRANCH   4   9
BRANCH   5  17
ATOM     17  O   UNL     1       5.574   1.546   3.580  0.00  0.00    +0.000 OA
ATOM     18  H   UNL     1       5.107   0.794   3.136  0.00  0.00    +0.000 HD
ENDBRANCH   5  17
TORSDOF 4
ENDMDL
MODEL 2
REMARK VINA RESULT:      -4.5      2.008      6.324
REMARK  Name = ox3_orig_f8_ligand
REMARK  5 active torsions:
REMARK  status: ('A' for Active; 'I' for Inactive)
REMARK    1  A    between atoms: C_1  and  O_2
REMARK    2  A    between atoms: O_2  and  C_3
REMARK    3  A    between atoms: C_6  and  C_7
REMARK    4  A    between atoms: C_7  and  C_9
REMARK    5  A    between atoms: C_15  and  O_16
REMARK                            x       y       z     vdW  Elec       q    Type
REMARK                         _______ _______ _______ _____ _____    ______ ____
ROOT
ATOM      1  C   UNL     1       6.638  -1.443   3.721  0.00  0.00    +0.000 A 
ATOM      2  C   UNL     1       7.798  -1.360   4.494  0.00  0.00    +0.000 A 
ATOM      3  C   UNL     1       8.273  -0.122   4.900  0.00  0.00    +0.000 A 
ATOM      4  C   UNL     1       7.600   1.042   4.545  0.00  0.00    +0.000 A 
ATOM      5  C   UNL     1       6.449   0.948   3.763  0.00  0.00    +0.000 A 
ATOM      6  C   UNL     1       5.980  -0.296   3.358  0.00  0.00    +0.000 A 
ENDROOT
BRANCH   1   8
ATOM      7  C   UNL     1       5.044  -2.672   2.362  0.00  0.00    +0.000 C 
ATOM      8  O   UNL     1       6.124  -2.644   3.295  0.00  0.00    +0.000 OA
ENDBRANCH   1   8
BRANCH   4   9
ATOM      9  C   UNL     1       8.108   2.391   4.968  0.00  0.00    +0.000 C 
ATOM     10  O   UNL     1       7.573   2.936   5.903  0.00  0.00    +0.000 OA
BRANCH   9  11
ATOM     11  C   UNL     1       9.211   3.086   4.259  0.00  0.00    +0.000 A 
ATOM     12  C   UNL     1      10.542   2.842   4.570  0.00  0.00    +0.000 A 
ATOM     13  C   UNL     1      11.546   3.533   3.917  0.00  0.00    +0.000 A 
ATOM     14  C   UNL     1      11.249   4.433   2.913  0.00  0.00    +0.000 A 
ATOM     15  C   UNL     1       9.924   4.695   2.606  0.00  0.00    +0.000 A 
ATOM     16  C   UNL     1       8.899   4.040   3.290  0.00  0.00    +0.000 A 
ENDBRANCH   9  11
ENDBRANCH   4   9
BRANCH   5  17
ATOM     17  O   UNL     1       5.797   2.084   3.389  0.00  0.00    +0.000 OA
ATOM     18  H   UNL     1       6.297   2.934   3.296  0.00  0.00    +0.000 HD
ENDBRANCH   5  17
TORSDOF 4
ENDMDL
MODEL 3
REMARK VINA RESULT:      -4.5      1.083      1.305
REMARK  Name = ox3_orig_f8_ligand
REMARK  5 active torsions:
REMARK  status: ('A' for Active; 'I' for Inactive)
REMARK    1  A    between atoms: C_1  and  O_2
REMARK    2  A    between atoms: O_2  and  C_3
REMARK    3  A    between atoms: C_6  and  C_7
REMARK    4  A    between atoms: C_7  and  C_9
REMARK    5  A    between atoms: C_15  and  O_16
REMARK                            x       y       z     vdW  Elec       q    Type
REMARK                         _______ _______ _______ _____ _____    ______ ____
ROOT
ATOM      1  C   UNL     1       7.755   2.090   4.859  0.00  0.00    +0.000 A 
ATOM      2  C   UNL     1       8.537   1.204   5.602  0.00  0.00    +0.000 A 
ATOM      3  C   UNL     1       8.381  -0.163   5.437  0.00  0.00    +0.000 A 
ATOM      4  C   UNL     1       7.449  -0.663   4.533  0.00  0.00    +0.000 A 
ATOM      5  C   UNL     1       6.665   0.232   3.805  0.00  0.00    +0.000 A 
ATOM      6  C   UNL     1       6.826   1.601   3.976  0.00  0.00    +0.000 A 
ENDROOT
BRANCH   1   8
ATOM      7  C   UNL     1       8.849   4.162   4.218  0.00  0.00    +0.000 C 
ATOM      8  O   UNL     1       7.872   3.454   4.981  0.00  0.00    +0.000 OA
ENDBRANCH   1   8
BRANCH   4   9
ATOM      9  C   UNL     1       7.260  -2.143   4.352  0.00  0.00    +0.000 C 
ATOM     10  O   UNL     1       7.579  -2.635   3.296  0.00  0.00    +0.000 OA
BRANCH   9  11
ATOM     11  C   UNL     1       6.667  -3.005   5.403  0.00  0.00    +0.000 A 
ATOM     12  C   UNL     1       7.460  -3.686   6.317  0.00  0.00    +0.000 A 
ATOM     13  C   UNL     1       6.879  -4.511   7.262  0.00  0.00    +0.000 A 
ATOM     14  C   UNL     1       5.506  -4.633   7.348  0.00  0.00    +0.000 A 
ATOM     15  C   UNL     1       4.707  -3.969   6.432  0.00  0.00    +0.000 A 
ATOM     16  C   UNL     1       5.283  -3.170   5.443  0.00  0.00    +0.000 A 
ENDBRANCH   9  11
ENDBRANCH   4   9
BRANCH   5  17
ATOM     17  O   UNL     1       5.733  -0.248   2.935  0.00  0.00    +0.000 OA
ATOM     18  H   UNL     1       5.406  -1.180   3.022  0.00  0.00    +0.000 HD
ENDBRANCH   5  17
TORSDOF 4
ENDMDL
MODEL 4
REMARK VINA RESULT:      -4.5      1.953      3.366
REMARK  Name = ox3_orig_f8_ligand
REMARK  5 active torsions:
REMARK  status: ('A' for Active; 'I' for Inactive)
REMARK    1  A    between atoms: C_1  and  O_2
REMARK    2  A    between atoms: O_2  and  C_3
REMARK    3  A    between atoms: C_6  and  C_7
REMARK    4  A    between atoms: C_7  and  C_9
REMARK    5  A    between atoms: C_15  and  O_16
REMARK                            x       y       z     vdW  Elec       q    Type
REMARK                         _______ _______ _______ _____ _____    ______ ____
ROOT
ATOM      1  C   UNL     1       5.626   1.355   2.772  0.00  0.00    +0.000 A 
ATOM      2  C   UNL     1       5.418   0.040   2.355  0.00  0.00    +0.000 A 
ATOM      3  C   UNL     1       6.112  -0.997   2.959  0.00  0.00    +0.000 A 
ATOM      4  C   UNL     1       7.016  -0.738   3.984  0.00  0.00    +0.000 A 
ATOM      5  C   UNL     1       7.224   0.582   4.385  0.00  0.00    +0.000 A 
ATOM      6  C   UNL     1       6.526   1.617   3.773  0.00  0.00    +0.000 A 
ENDROOT
BRANCH   1   8
ATOM      7  C   UNL     1       3.606   2.277   1.786  0.00  0.00    +0.000 C 
ATOM      8  O   UNL     1       4.963   2.419   2.210  0.00  0.00    +0.000 OA
ENDBRANCH   1   8
BRANCH   4   9
ATOM      9  C   UNL     1       7.784  -1.850   4.641  0.00  0.00    +0.000 C 
ATOM     10  O   UNL     1       8.961  -1.954   4.395  0.00  0.00    +0.000 OA
BRANCH   9  11
ATOM     11  C   UNL     1       7.142  -2.837   5.543  0.00  0.00    +0.000 A 
ATOM     12  C   UNL     1       5.765  -3.016   5.560  0.00  0.00    +0.000 A 
ATOM     13  C   UNL     1       5.193  -3.918   6.439  0.00  0.00    +0.000 A 
ATOM     14  C   UNL     1       5.978  -4.689   7.273  0.00  0.00    +0.000 A 
ATOM     15  C   UNL     1       7.351  -4.507   7.274  0.00  0.00    +0.000 A 
ATOM     16  C   UNL     1       7.937  -3.567   6.426  0.00  0.00    +0.000 A 
ENDBRANCH   9  11
ENDBRANCH   4   9
BRANCH   5  17
ATOM     17  O   UNL     1       8.126   0.849   5.371  0.00  0.00    +0.000 OA
ATOM     18  H   UNL     1       7.856   0.778   6.322  0.00  0.00    +0.000 HD
ENDBRANCH   5  17
TORSDOF 4
ENDMDL
MODEL 5
REMARK VINA RESULT:      -4.4      2.433      5.321
REMARK  Name = ox3_orig_f8_ligand
REMARK  5 active torsions:
REMARK  status: ('A' for Active; 'I' for Inactive)
REMARK    1  A    between atoms: C_1  and  O_2
REMARK    2  A    between atoms: O_2  and  C_3
REMARK    3  A    between atoms: C_6  and  C_7
REMARK    4  A    between atoms: C_7  and  C_9
REMARK    5  A    between atoms: C_15  and  O_16
REMARK                            x       y       z     vdW  Elec       q    Type
REMARK                         _______ _______ _______ _____ _____    ______ ____
ROOT
ATOM      1  C   UNL     1       5.752  -0.354   3.423  0.00  0.00    +0.000 A 
ATOM      2  C   UNL     1       6.595  -1.074   4.271  0.00  0.00    +0.000 A 
ATOM      3  C   UNL     1       7.624  -0.428   4.939  0.00  0.00    +0.000 A 
ATOM      4  C   UNL     1       7.823   0.939   4.772  0.00  0.00    +0.000 A 
ATOM      5  C   UNL     1       6.982   1.646   3.913  0.00  0.00    +0.000 A 
ATOM      6  C   UNL     1       5.954   0.991   3.245  0.00  0.00    +0.000 A 
ENDROOT
BRANCH   1   8
ATOM      7  C   UNL     1       4.381  -0.507   1.423  0.00  0.00    +0.000 C 
ATOM      8  O   UNL     1       4.717  -0.945   2.740  0.00  0.00    +0.000 OA
ENDBRANCH   1   8
BRANCH   4   9
ATOM      9  C   UNL     1       8.940   1.652   5.480  0.00  0.00    +0.000 C 
ATOM     10  O   UNL     1       9.898   2.000   4.832  0.00  0.00    +0.000 OA
BRANCH   9  11
ATOM     11  C   UNL     1       8.924   1.906   6.942  0.00  0.00    +0.000 A 
ATOM     12  C   UNL     1       9.945   1.457   7.768  0.00  0.00    +0.000 A 
ATOM     13  C   UNL     1       9.883   1.678   9.132  0.00  0.00    +0.000 A 
ATOM     14  C   UNL     1       8.838   2.390   9.687  0.00  0.00    +0.000 A 
ATOM     15  C   UNL     1       7.807   2.828   8.873  0.00  0.00    +0.000 A 
ATOM     16  C   UNL     1       7.834   2.571   7.502  0.00  0.00    +0.000 A 
ENDBRANCH   9  11
ENDBRANCH   4   9
BRANCH   5  17
ATOM     17  O   UNL     1       7.185   2.980   3.724  0.00  0.00    +0.000 OA
ATOM     18  H   UNL     1       6.586   3.493   3.124  0.00  0.00    +0.000 HD
ENDBRANCH   5  17
TORSDOF 4
ENDMDL
MODEL 6
REMARK VINA RESULT:      -4.4      2.497      4.082
REMARK  Name = ox3_orig_f8_ligand
REMARK  5 active torsions:
REMARK  status: ('A' for Active; 'I' for Inactive)
REMARK    1  A    between atoms: C_1  and  O_2
REMARK    2  A    between atoms: O_2  and  C_3
REMARK    3  A    between atoms: C_6  and  C_7
REMARK    4  A    between atoms: C_7  and  C_9
REMARK    5  A    between atoms: C_15  and  O_16
REMARK                            x       y       z     vdW  Elec       q    Type
REMARK                         _______ _______ _______ _____ _____    ______ ____
ROOT
ATOM      1  C   UNL     1       4.644   0.845   0.772  0.00  0.00    +0.000 A 
ATOM      2  C   UNL     1       5.021  -0.498   0.733  0.00  0.00    +0.000 A 
ATOM      3  C   UNL     1       5.739  -1.047   1.783  0.00  0.00    +0.000 A 
ATOM      4  C   UNL     1       6.088  -0.268   2.882  0.00  0.00    +0.000 A 
ATOM      5  C   UNL     1       5.716   1.076   2.905  0.00  0.00    +0.000 A 
ATOM      6  C   UNL     1       4.997   1.620   1.847  0.00  0.00    +0.000 A 
ENDROOT
BRANCH   1   8
ATOM      7  C   UNL     1       4.595   1.902  -1.415  0.00  0.00    +0.000 C 
ATOM      8  O   UNL     1       3.928   1.438  -0.241  0.00  0.00    +0.000 OA
ENDBRANCH   1   8
BRANCH   4   9
ATOM      9  C   UNL     1       6.876  -0.846   4.023  0.00  0.00    +0.000 C 
ATOM     10  O   UNL     1       7.974  -0.395   4.246  0.00  0.00    +0.000 OA
BRANCH   9  11
ATOM     11  C   UNL     1       6.372  -1.967   4.854  0.00  0.00    +0.000 A 
ATOM     12  C   UNL     1       5.026  -2.307   4.874  0.00  0.00    +0.000 A 
ATOM     13  C   UNL     1       4.580  -3.333   5.687  0.00  0.00    +0.000 A 
ATOM     14  C   UNL     1       5.466  -4.068   6.449  0.00  0.00    +0.000 A 
ATOM     15  C   UNL     1       6.809  -3.726   6.448  0.00  0.00    +0.000 A 
ATOM     16  C   UNL     1       7.265  -2.662   5.669  0.00  0.00    +0.000 A 
ENDBRANCH   9  11
ENDBRANCH   4   9
BRANCH   5  17
ATOM     17  O   UNL     1       6.074   1.853   3.965  0.00  0.00    +0.000 OA
ATOM     18  H   UNL     1       6.781   2.539   3.860  0.00  0.00    +0.000 HD
ENDBRANCH   5  17
TORSDOF 4
ENDMDL
MODEL 7
REMARK VINA RESULT:      -4.3      1.696      2.581
REMARK  Name = ox3_orig_f8_ligand
REMARK  5 active torsions:
REMARK  status: ('A' for Active; 'I' for Inactive)
REMARK    1  A    between atoms: C_1  and  O_2
REMARK    2  A    between atoms: O_2  and  C_3
REMARK    3  A    between atoms: C_6  and  C_7
REMARK    4  A    between atoms: C_7  and  C_9
REMARK    5  A    between atoms: C_15  and  O_16
REMARK                            x       y       z     vdW  Elec       q    Type
REMARK                         _______ _______ _______ _____ _____    ______ ____
ROOT
ATOM      1  C   UNL     1       7.558   1.739   4.574  0.00  0.00    +0.000 A 
ATOM      2  C   UNL     1       6.606   0.995   3.875  0.00  0.00    +0.000 A 
ATOM      3  C   UNL     1       6.631  -0.389   3.930  0.00  0.00    +0.000 A 
ATOM      4  C   UNL     1       7.600  -1.048   4.680  0.00  0.00    +0.000 A 
ATOM      5  C   UNL     1       8.554  -0.295   5.364  0.00  0.00    +0.000 A 
ATOM      6  C   UNL     1       8.524   1.093   5.304  0.00  0.00    +0.000 A 
ENDROOT
BRANCH   1   8
ATOM      7  C   UNL     1       8.682   3.810   3.983  0.00  0.00    +0.000 C 
ATOM      8  O   UNL     1       7.576   3.113   4.557  0.00  0.00    +0.000 OA
ENDBRANCH   1   8
BRANCH   4   9
ATOM      9  C   UNL     1       7.648  -2.549   4.739  0.00  0.00    +0.000 C 
ATOM     10  O   UNL     1       8.387  -3.128   3.981  0.00  0.00    +0.000 OA
BRANCH   9  11
ATOM     11  C   UNL     1       6.796  -3.337   5.664  0.00  0.00    +0.000 A 
ATOM     12  C   UNL     1       5.412  -3.333   5.557  0.00  0.00    +0.000 A 
ATOM     13  C   UNL     1       4.644  -4.048   6.458  0.00  0.00    +0.000 A 
ATOM     14  C   UNL     1       5.236  -4.817   7.440  0.00  0.00    +0.000 A 
ATOM     15  C   UNL     1       6.616  -4.816   7.564  0.00  0.00    +0.000 A 
ATOM     16  C   UNL     1       7.401  -4.060   6.692  0.00  0.00    +0.000 A 
ENDBRANCH   9  11
ENDBRANCH   4   9
BRANCH   5  17
ATOM     17  O   UNL     1       9.522  -0.931   6.081  0.00  0.00    +0.000 OA
ATOM     18  H   UNL     1      10.418  -1.079   5.683  0.00  0.00    +0.000 HD
ENDBRANCH   5  17
TORSDOF 4
ENDMDL
MODEL 8
REMARK VINA RESULT:      -4.3      1.457      2.213
REMARK  Name = ox3_orig_f8_ligand
REMARK  5 active torsions:
REMARK  status: ('A' for Active; 'I' for Inactive)
REMARK    1  A    between atoms: C_1  and  O_2
REMARK    2  A    between atoms: O_2  and  C_3
REMARK    3  A    between atoms: C_6  and  C_7
REMARK    4  A    between atoms: C_7  and  C_9
REMARK    5  A    between atoms: C_15  and  O_16
REMARK                            x       y       z     vdW  Elec       q    Type
REMARK                         _______ _______ _______ _____ _____    ______ ____
ROOT
ATOM      1  C   UNL     1       8.491   1.594   5.116  0.00  0.00    +0.000 A 
ATOM      2  C   UNL     1       8.500   0.202   5.222  0.00  0.00    +0.000 A 
ATOM      3  C   UNL     1       7.515  -0.547   4.599  0.00  0.00    +0.000 A 
ATOM      4  C   UNL     1       6.513   0.077   3.863  0.00  0.00    +0.000 A 
ATOM      5  C   UNL     1       6.507   1.469   3.774  0.00  0.00    +0.000 A 
ATOM      6  C   UNL     1       7.498   2.214   4.402  0.00  0.00    +0.000 A 
ENDROOT
BRANCH   1   8
ATOM      7  C   UNL     1       9.147   3.737   6.053  0.00  0.00    +0.000 C 
ATOM      8  O   UNL     1       9.446   2.383   5.711  0.00  0.00    +0.000 OA
ENDBRANCH   1   8
BRANCH   4   9
ATOM      9  C   UNL     1       5.431  -0.720   3.191  0.00  0.00    +0.000 C 
ATOM     10  O   UNL     1       5.523  -0.922   2.004  0.00  0.00    +0.000 OA
BRANCH   9  11
ATOM     11  C   UNL     1       4.247  -1.232   3.924  0.00  0.00    +0.000 A 
ATOM     12  C   UNL     1       3.088  -0.477   4.048  0.00  0.00    +0.000 A 
ATOM     13  C   UNL     1       2.014  -0.967   4.768  0.00  0.00    +0.000 A 
ATOM     14  C   UNL     1       2.053  -2.228   5.329  0.00  0.00    +0.000 A 
ATOM     15  C   UNL     1       3.210  -2.983   5.223  0.00  0.00    +0.000 A 
ATOM     16  C   UNL     1       4.318  -2.481   4.540  0.00  0.00    +0.000 A 
ENDBRANCH   9  11
ENDBRANCH   4   9
BRANCH   5  17
ATOM     17  O   UNL     1       5.516   2.092   3.076  0.00  0.00    +0.000 OA
ATOM     18  H   UNL     1       4.734   2.469   3.554  0.00  0.00    +0.000 HD
ENDBRANCH   5  17
TORSDOF 4
ENDMDL
MODEL 9
REMARK VINA RESULT:      -4.3      3.956      5.596
REMARK  Name = ox3_orig_f8_ligand
REMARK  5 active torsions:
REMARK  status: ('A' for Active; 'I' for Inactive)
REMARK    1  A    between atoms: C_1  and  O_2
REMARK    2  A    between atoms: O_2  and  C_3
REMARK    3  A    between atoms: C_6  and  C_7
REMARK    4  A    between atoms: C_7  and  C_9
REMARK    5  A    between atoms: C_15  and  O_16
REMARK                            x       y       z     vdW  Elec       q    Type
REMARK                         _______ _______ _______ _____ _____    ______ ____
ROOT
ATOM      1  C   UNL     1       3.034   1.245  -0.668  0.00  0.00    +0.000 A 
ATOM      2  C   UNL     1       4.088   0.334  -0.575  0.00  0.00    +0.000 A 
ATOM      3  C   UNL     1       4.929   0.357   0.526  0.00  0.00    +0.000 A 
ATOM      4  C   UNL     1       4.731   1.282   1.546  0.00  0.00    +0.000 A 
ATOM      5  C   UNL     1       3.682   2.195   1.437  0.00  0.00    +0.000 A 
ATOM      6  C   UNL     1       2.843   2.167   0.329  0.00  0.00    +0.000 A 
ENDROOT
BRANCH   1   8
ATOM      7  C   UNL     1       0.789   1.570  -1.538  0.00  0.00    +0.000 C 
ATOM      8  O   UNL     1       2.169   1.263  -1.736  0.00  0.00    +0.000 OA
ENDBRANCH   1   8
BRANCH   4   9
ATOM      9  C   UNL     1       5.641   1.327   2.741  0.00  0.00    +0.000 C 
ATOM     10  O   UNL     1       6.179   2.373   3.011  0.00  0.00    +0.000 OA
BRANCH   9  11
ATOM     11  C   UNL     1       5.927   0.130   3.570  0.00  0.00    +0.000 A 
ATOM     12  C   UNL     1       7.158  -0.049   4.186  0.00  0.00    +0.000 A 
ATOM     13  C   UNL     1       7.407  -1.192   4.922  0.00  0.00    +0.000 A 
ATOM     14  C   UNL     1       6.426  -2.147   5.101  0.00  0.00    +0.000 A 
ATOM     15  C   UNL     1       5.199  -1.985   4.478  0.00  0.00    +0.000 A 
ATOM     16  C   UNL     1       4.951  -0.858   3.693  0.00  0.00    +0.000 A 
ENDBRANCH   9  11
ENDBRANCH   4   9
BRANCH   5  17
ATOM     17  O   UNL     1       3.494   3.121   2.419  0.00  0.00    +0.000 OA
ATOM     18  H   UNL     1       4.222   3.315   3.063  0.00  0.00    +0.000 HD
ENDBRANCH   5  17
TORSDOF 4
ENDMDL
