REMARK  Name = shuffle_control_esm0_ligand
REMARK  12 active torsions:
REMARK  status: ('A' for Active; 'I' for Inactive)
REMARK    1  A    between atoms: C_1  and  C_2
REMARK    2  A    between atoms: C_2  and  C_3
REMARK    3  A    between atoms: C_3  and  C_4
REMARK    4  A    between atoms: C_4  and  C_5
REMARK    5  A    between atoms: C_5  and  C_6
REMARK    6  A    between atoms: C_5  and  O_8
REMARK    7  A    between atoms: C_6  and  C_7
REMARK    8  A    between atoms: O_8  and  C_9
REMARK    9  A    between atoms: C_9  and  C_11
REMARK   10  A    between atoms: C_12  and  C_13
REMARK   11  A    between atoms: C_16  and  O_17
REMARK   12  A    between atoms: O_17  and  C_18
REMARK                            x       y       z     vdW  Elec       q    Type
REMARK                         _______ _______ _______ _____ _____    ______ ____
ROOT
ATOM      1  C   UNL     1       2.681  10.478   5.276  0.00  0.00    +0.000 C 
ATOM      2  O   UNL     1       3.130  11.511   5.660  0.00  0.00    +0.000 OA
ENDROOT
BRANCH   1   3
ATOM      3  C   UNL     1       3.375   9.162   5.422  0.00  0.00    +0.000 C 
ATOM      4  C   UNL     1       4.089   8.658   4.431  0.00  0.00    +0.000 C 
BRANCH   4   5
ATOM      5  C   UNL     1       4.699   7.295   4.466  0.00  0.00    +0.000 A 
ATOM      6  C   UNL     1       4.491   6.459   3.399  0.00  0.00    +0.000 A 
ATOM      7  C   UNL     1       5.010   5.172   3.391  0.00  0.00    +0.000 A 
ATOM      8  C   UNL     1       5.758   4.713   4.459  0.00  0.00    +0.000 A 
ATOM      9  C   UNL     1       5.977   5.566   5.541  0.00  0.00    +0.000 A 
ATOM     10  C   UNL     1       5.454   6.863   5.540  0.00  0.00    +0.000 A 
BRANCH   8  11
ATOM     11  O   UNL     1       6.270   3.465   4.496  0.00  0.00    +0.000 OA
ATOM     12  C   UNL     1       5.966   2.550   3.445  0.00  0.00    +0.000 C 
ENDBRANCH   8  11
ENDBRANCH   4   5
ENDBRANCH   1   3
BRANCH   1  13
ATOM     13  O   UNL     1       1.479  10.410   4.652  0.00  0.00    +0.000 OA
BRANCH  13  14
ATOM     14  C   UNL     1       0.734  11.570   4.295  0.00  0.00    +0.000 C 
BRANCH  14  15
ATOM     15  C   UNL     1      -0.497  11.762   5.162  0.00  0.00    +0.000 C 
ATOM     16  C   UNL     1      -0.251  12.113   6.601  0.00  0.00    +0.000 C 
ENDBRANCH  14  15
BRANCH  14  17
ATOM     17  C   UNL     1       0.278  11.406   2.882  0.00  0.00    +0.000 C 
BRANCH  17  18
ATOM     18  C   UNL     1       1.314  10.879   1.950  0.00  0.00    +0.000 C 
BRANCH  18  20
ATOM     19  C   UNL     1      -0.385  11.124   0.063  0.00  0.00    +0.000 C 
ATOM     20  C   UNL     1       0.867  10.499   0.571  0.00  0.00    +0.000 C 
ENDBRANCH  18  20
ENDBRANCH  17  18
ENDBRANCH  14  17
ENDBRANCH  13  14
ENDBRANCH   1  13
TORSDOF 9
