MODEL 1
REMARK VINA RESULT:      -4.5      0.000      0.000
REMARK  Name = shuffle_control_esm0_ligand
REMARK  12 active torsions:
REMARK  status: ('A' for Active; 'I' for Inactive)
REMARK    1  A    between atoms: C_1  and  C_2
REMARK    2  A    between atoms: C_2  and  C_3
REMARK    3  A    between atoms: C_3  and  C_4
REMARK    4  A    between atoms: C_4  and  C_5
REMARK    5  A    between atoms: C_5  and  C_6
REMARK    6  A    between atoms: C_5  and  O_8
REMARK    7  A    between atoms: C_6  and  C_7
REMARK    8  A    between atoms: O_8  and  C_9
REMARK    9  A    between atoms: C_9  and  C_11
REMARK   10  A    between atoms: C_12  and  C_13
REMARK   11  A    between atoms: C_16  and  O_17
REMARK   12  A    between atoms: O_17  and  C_18
REMARK                            x       y       z     vdW  Elec       q    Type
REMARK                         _______ _______ _______ _____ _____    ______ ____
ROOT
ATOM      1  C   UNL     1      -1.385  13.436   4.140  0.00  0.00    +0.000 C 
ATOM      2  O   UNL     1      -2.039  14.380   4.453  0.00  0.00    +0.000 OA
ENDROOT
BRANCH   1   3
ATOM      3  C   UNL     1      -1.517  12.727   2.830  0.00  0.00    +0.000 C 
ATOM      4  C   UNL     1      -0.588  11.884   2.418  0.00  0.00    +0.000 C 
BRANCH   4   5
ATOM      5  C   UNL     1      -0.597  11.244   1.069  0.00  0.00    +0.000 A 
ATOM      6  C   UNL     1       0.057  10.049   0.909  0.00  0.00    +0.000 A 
ATOM      7  C   UNL     1       0.106   9.424  -0.330  0.00  0.00    +0.000 A 
ATOM      8  C   UNL     1      -0.517   9.993  -1.425  0.00  0.00    +0.000 A 
ATOM      9  C   UNL     1      -1.190  11.204  -1.260  0.00  0.00    +0.000 A 
ATOM     10  C   UNL     1      -1.237  11.826  -0.009  0.00  0.00    +0.000 A 
BRANCH   8  11
ATOM     11  O   UNL     1      -0.484   9.424  -2.648  0.00  0.00    +0.000 OA
ATOM     12  C   UNL     1      -1.702   9.015  -3.266  0.00  0.00    +0.000 C 
ENDBRANCH   8  11
ENDBRANCH   4   5
ENDBRANCH   1   3
BRANCH   1  13
ATOM     13  O   UNL     1      -0.450  12.909   4.969  0.00  0.00    +0.000 OA
BRANCH  13  14
ATOM     14  C   UNL     1      -0.789  12.099   6.090  0.00  0.00    +0.000 C 
BRANCH  14  15
ATOM     15  C   UNL     1      -0.226  12.640   7.392  0.00  0.00    +0.000 C 
ATOM     16  C   UNL     1      -1.222  12.943   8.474  0.00  0.00    +0.000 C 
ENDBRANCH  14  15
BRANCH  14  17
ATOM     17  C   UNL     1      -0.207  10.741   5.869  0.00  0.00    +0.000 C 
BRANCH  17  18
ATOM     18  C   UNL     1       1.251  10.730   5.565  0.00  0.00    +0.000 C 
BRANCH  18  20
ATOM     19  C   UNL     1       1.668   8.581   4.255  0.00  0.00    +0.000 C 
ATOM     20  C   UNL     1       1.682  10.069   4.291  0.00  0.00    +0.000 C 
ENDBRANCH  18  20
ENDBRANCH  17  18
ENDBRANCH  14  17
ENDBRANCH  13  14
ENDBRANCH   1  13
TORSDOF 9
ENDMDL
MODEL 2
REMARK VINA RESULT:      -4.4      1.763      3.294
REMARK  Name = shuffle_control_esm0_ligand
REMARK  12 active torsions:
REMARK  status: ('A' for Active; 'I' for Inactive)
REMARK    1  A    between atoms: C_1  and  C_2
REMARK    2  A    between atoms: C_2  and  C_3
REMARK    3  A    between atoms: C_3  and  C_4
REMARK    4  A    between atoms: C_4  and  C_5
REMARK    5  A    between atoms: C_5  and  C_6
REMARK    6  A    between atoms: C_5  and  O_8
REMARK    7  A    between atoms: C_6  and  C_7
REMARK    8  A    between atoms: O_8  and  C_9
REMARK    9  A    between atoms: C_9  and  C_11
REMARK   10  A    between atoms: C_12  and  C_13
REMARK   11  A    between atoms: C_16  and  O_17
REMARK   12  A    between atoms: O_17  and  C_18
REMARK                            x       y       z     vdW  Elec       q    Type
REMARK                         _______ _______ _______ _____ _____    ______ ____
ROOT
ATOM      1  C   UNL     1       1.575  11.603   5.753  0.00  0.00    +0.000 C 
ATOM      2  O   UNL     1       2.677  11.613   6.201  0.00  0.00    +0.000 OA
ENDROOT
BRANCH   1   3
ATOM      3  C   UNL     1       1.269  11.653   4.290  0.00  0.00    +0.000 C 
ATOM      4  C   UNL     1       0.240  10.993   3.790  0.00  0.00    +0.000 C 
BRANCH   4   5
ATOM      5  C   UNL     1      -0.044  10.897   2.326  0.00  0.00    +0.000 A 
ATOM      6  C   UNL     1      -0.849  11.849   1.754  0.00  0.00    +0.000 A 
ATOM      7  C   UNL     1      -1.169  11.792   0.404  0.00  0.00    +0.000 A 
ATOM      8  C   UNL     1      -0.670  10.777  -0.391  0.00  0.00    +0.000 A 
ATOM      9  C   UNL     1       0.156   9.814   0.190  0.00  0.00    +0.000 A 
ATOM     10  C   UNL     1       0.477   9.880   1.549  0.00  0.00    +0.000 A 
BRANCH   8  11
ATOM     11  O   UNL     1      -0.966  10.680  -1.703  0.00  0.00    +0.000 OA
ATOM     12  C   UNL     1      -1.415  11.835  -2.410  0.00  0.00    +0.000 C 
ENDBRANCH   8  11
ENDBRANCH   4   5
ENDBRANCH   1   3
BRANCH   1  13
ATOM     13  O   UNL     1       0.480  11.554   6.551  0.00  0.00    +0.000 OA
BRANCH  13  14
ATOM     14  C   UNL     1      -0.271  12.714   6.894  0.00  0.00    +0.000 C 
BRANCH  14  15
ATOM     15  C   UNL     1      -0.231  13.016   8.381  0.00  0.00    +0.000 C 
ATOM     16  C   UNL     1      -1.558  13.182   9.064  0.00  0.00    +0.000 C 
ENDBRANCH  14  15
BRANCH  14  17
ATOM     17  C   UNL     1      -1.695  12.468   6.515  0.00  0.00    +0.000 C 
BRANCH  17  18
ATOM     18  C   UNL     1      -2.214  13.352   5.434  0.00  0.00    +0.000 C 
BRANCH  18  20
ATOM     19  C   UNL     1      -1.632  14.970   3.549  0.00  0.00    +0.000 C 
ATOM     20  C   UNL     1      -1.266  14.358   4.856  0.00  0.00    +0.000 C 
ENDBRANCH  18  20
ENDBRANCH  17  18
ENDBRANCH  14  17
ENDBRANCH  13  14
ENDBRANCH   1  13
TORSDOF 9
ENDMDL
MODEL 3
REMARK VINA RESULT:      -4.3      2.195      7.586
REMARK  Name = shuffle_control_esm0_ligand
REMARK  12 active torsions:
REMARK  status: ('A' for Active; 'I' for Inactive)
REMARK    1  A    between atoms: C_1  and  C_2
REMARK    2  A    between atoms: C_2  and  C_3
REMARK    3  A    between atoms: C_3  and  C_4
REMARK    4  A    between atoms: C_4  and  C_5
REMARK    5  A    between atoms: C_5  and  C_6
REMARK    6  A    between atoms: C_5  and  O_8
REMARK    7  A    between atoms: C_6  and  C_7
REMARK    8  A    between atoms: O_8  and  C_9
REMARK    9  A    between atoms: C_9  and  C_11
REMARK   10  A    between atoms: C_12  and  C_13
REMARK   11  A    between atoms: C_16  and  O_17
REMARK   12  A    between atoms: O_17  and  C_18
REMARK                            x       y       z     vdW  Elec       q    Type
REMARK                         _______ _______ _______ _____ _____    ______ ____
ROOT
ATOM      1  C   UNL     1       1.780   9.652   3.316  0.00  0.00    +0.000 C 
ATOM      2  O   UNL     1       2.624   8.844   3.539  0.00  0.00    +0.000 OA
ENDROOT
BRANCH   1   3
ATOM      3  C   UNL     1       0.915  10.266   4.369  0.00  0.00    +0.000 C 
ATOM      4  C   UNL     1       1.200  11.454   4.873  0.00  0.00    +0.000 C 
BRANCH   4   5
ATOM      5  C   UNL     1       0.453  12.065   6.014  0.00  0.00    +0.000 A 
ATOM      6  C   UNL     1      -0.868  11.736   6.180  0.00  0.00    +0.000 A 
ATOM      7  C   UNL     1      -1.617  12.296   7.206  0.00  0.00    +0.000 A 
ATOM      8  C   UNL     1      -1.038  13.190   8.087  0.00  0.00    +0.000 A 
ATOM      9  C   UNL     1       0.308  13.518   7.923  0.00  0.00    +0.000 A 
ATOM     10  C   UNL     1       1.057  12.947   6.890  0.00  0.00    +0.000 A 
BRANCH   8  11
ATOM     11  O   UNL     1      -1.735  13.766   9.089  0.00  0.00    +0.000 OA
ATOM     12  C   UNL     1      -1.773  15.188   9.191  0.00  0.00    +0.000 C 
ENDBRANCH   8  11
ENDBRANCH   4   5
ENDBRANCH   1   3
BRANCH   1  13
ATOM     13  O   UNL     1       1.521  10.085   2.057  0.00  0.00    +0.000 OA
BRANCH  13  14
ATOM     14  C   UNL     1       0.203  10.135   1.520  0.00  0.00    +0.000 C 
BRANCH  14  15
ATOM     15  C   UNL     1      -0.013   9.124   0.409  0.00  0.00    +0.000 C 
ATOM     16  C   UNL     1       0.180   9.623  -0.994  0.00  0.00    +0.000 C 
ENDBRANCH  14  15
BRANCH  14  17
ATOM     17  C   UNL     1      -0.007  11.498   0.946  0.00  0.00    +0.000 C 
BRANCH  17  18
ATOM     18  C   UNL     1      -1.292  12.146   1.333  0.00  0.00    +0.000 C 
BRANCH  18  20
ATOM     19  C   UNL     1      -2.520  13.640   2.997  0.00  0.00    +0.000 C 
ATOM     20  C   UNL     1      -1.379  12.728   2.712  0.00  0.00    +0.000 C 
ENDBRANCH  18  20
ENDBRANCH  17  18
ENDBRANCH  14  17
ENDBRANCH  13  14
ENDBRANCH   1  13
TORSDOF 9
ENDMDL
MODEL 4
REMARK VINA RESULT:      -4.3      2.348      8.537
REMARK  Name = shuffle_control_esm0_ligand
REMARK  12 active torsions:
REMARK  status: ('A' for Active; 'I' for Inactive)
REMARK    1  A    between atoms: C_1  and  C_2
REMARK    2  A    between atoms: C_2  and  C_3
REMARK    3  A    between atoms: C_3  and  C_4
REMARK    4  A    between atoms: C_4  and  C_5
REMARK    5  A    between atoms: C_5  and  C_6
REMARK    6  A    between atoms: C_5  and  O_8
REMARK    7  A    between atoms: C_6  and  C_7
REMARK    8  A    between atoms: O_8  and  C_9
REMARK    9  A    between atoms: C_9  and  C_11
REMARK   10  A    between atoms: C_12  and  C_13
REMARK   11  A    between atoms: C_16  and  O_17
REMARK   12  A    between atoms: O_17  and  C_18
REMARK                            x       y       z     vdW  Elec       q    Type
REMARK                         _______ _______ _______ _____ _____    ______ ____
ROOT
ATOM      1  C   UNL     1      -0.537   9.247  -2.354  0.00  0.00    +0.000 C 
ATOM      2  O   UNL     1       0.356   9.140  -3.133  0.00  0.00    +0.000 OA
ENDROOT
BRANCH   1   3
ATOM      3  C   UNL     1      -0.448  10.039  -1.089  0.00  0.00    +0.000 C 
ATOM      4  C   UNL     1       0.107   9.526  -0.005  0.00  0.00    +0.000 C 
BRANCH   4   5
ATOM      5  C   UNL     1       0.113  10.213   1.321  0.00  0.00    +0.000 A 
ATOM      6  C   UNL     1      -0.683  11.316   1.488  0.00  0.00    +0.000 A 
ATOM      7  C   UNL     1      -0.696  12.010   2.690  0.00  0.00    +0.000 A 
ATOM      8  C   UNL     1       0.091  11.592   3.747  0.00  0.00    +0.000 A 
ATOM      9  C   UNL     1       0.895  10.464   3.580  0.00  0.00    +0.000 A 
ATOM     10  C   UNL     1       0.899   9.768   2.368  0.00  0.00    +0.000 A 
BRANCH   8  11
ATOM     11  O   UNL     1       0.117  12.245   4.928  0.00  0.00    +0.000 OA
ATOM     12  C   UNL     1      -0.056  11.513   6.139  0.00  0.00    +0.000 C 
ENDBRANCH   8  11
ENDBRANCH   4   5
ENDBRANCH   1   3
BRANCH   1  13
ATOM     13  O   UNL     1      -1.733   8.639  -2.550  0.00  0.00    +0.000 OA
BRANCH  13  14
ATOM     14  C   UNL     1      -1.849   7.349  -3.141  0.00  0.00    +0.000 C 
BRANCH  14  15
ATOM     15  C   UNL     1      -2.502   7.391  -4.510  0.00  0.00    +0.000 C 
ATOM     16  C   UNL     1      -1.576   7.370  -5.692  0.00  0.00    +0.000 C 
ENDBRANCH  14  15
BRANCH  14  17
ATOM     17  C   UNL     1      -2.707   6.511  -2.250  0.00  0.00    +0.000 C 
BRANCH  17  18
ATOM     18  C   UNL     1      -2.679   5.052  -2.549  0.00  0.00    +0.000 C 
BRANCH  18  20
ATOM     19  C   UNL     1      -5.227   5.109  -2.437  0.00  0.00    +0.000 C 
ATOM     20  C   UNL     1      -3.990   4.387  -2.842  0.00  0.00    +0.000 C 
ENDBRANCH  18  20
ENDBRANCH  17  18
ENDBRANCH  14  17
ENDBRANCH  13  14
ENDBRANCH   1  13
TORSDOF 9
ENDMDL
MODEL 5
REMARK VINA RESULT:      -4.3      1.010      3.119
REMARK  Name = shuffle_control_esm0_ligand
REMARK  12 active torsions:
REMARK  status: ('A' for Active; 'I' for Inactive)
REMARK    1  A    between atoms: C_1  and  C_2
REMARK    2  A    between atoms: C_2  and  C_3
REMARK    3  A    between atoms: C_3  and  C_4
REMARK    4  A    between atoms: C_4  and  C_5
REMARK    5  A    between atoms: C_5  and  C_6
REMARK    6  A    between atoms: C_5  and  O_8
REMARK    7  A    between atoms: C_6  and  C_7
REMARK    8  A    between atoms: O_8  and  C_9
REMARK    9  A    between atoms: C_9  and  C_11
REMARK   10  A    between atoms: C_12  and  C_13
REMARK   11  A    between atoms: C_16  and  O_17
REMARK   12  A    between atoms: O_17  and  C_18
REMARK                            x       y       z     vdW  Elec       q    Type
REMARK                         _______ _______ _______ _____ _____    ______ ____
ROOT
ATOM      1  C   UNL     1      -1.608  13.715   4.067  0.00  0.00    +0.000 C 
ATOM      2  O   UNL     1      -1.501  14.897   4.150  0.00  0.00    +0.000 OA
ENDROOT
BRANCH   1   3
ATOM      3  C   UNL     1      -1.644  12.971   2.771  0.00  0.00    +0.000 C 
ATOM      4  C   UNL     1      -0.773  12.010   2.516  0.00  0.00    +0.000 C 
BRANCH   4   5
ATOM      5  C   UNL     1      -0.674  11.318   1.195  0.00  0.00    +0.000 A 
ATOM      6  C   UNL     1       0.048  10.154   1.121  0.00  0.00    +0.000 A 
ATOM      7  C   UNL     1       0.197   9.485  -0.086  0.00  0.00    +0.000 A 
ATOM      8  C   UNL     1      -0.391   9.978  -1.236  0.00  0.00    +0.000 A 
ATOM      9  C   UNL     1      -1.132  11.157  -1.159  0.00  0.00    +0.000 A 
ATOM     10  C   UNL     1      -1.281  11.824   0.062  0.00  0.00    +0.000 A 
BRANCH   8  11
ATOM     11  O   UNL     1      -0.260   9.364  -2.431  0.00  0.00    +0.000 OA
ATOM     12  C   UNL     1      -1.305   9.477  -3.396  0.00  0.00    +0.000 C 
ENDBRANCH   8  11
ENDBRANCH   4   5
ENDBRANCH   1   3
BRANCH   1  13
ATOM     13  O   UNL     1      -1.717  12.928   5.166  0.00  0.00    +0.000 OA
BRANCH  13  14
ATOM     14  C   UNL     1      -0.806  13.006   6.258  0.00  0.00    +0.000 C 
BRANCH  14  15
ATOM     15  C   UNL     1       0.462  12.207   6.017  0.00  0.00    +0.000 C 
ATOM     16  C   UNL     1       0.285  10.744   5.730  0.00  0.00    +0.000 C 
ENDBRANCH  14  15
BRANCH  14  17
ATOM     17  C   UNL     1      -1.483  12.438   7.462  0.00  0.00    +0.000 C 
BRANCH  17  18
ATOM     18  C   UNL     1      -1.356  13.264   8.696  0.00  0.00    +0.000 C 
BRANCH  18  20
ATOM     19  C   UNL     1      -2.393  15.378   9.678  0.00  0.00    +0.000 C 
ATOM     20  C   UNL     1      -1.637  14.731   8.571  0.00  0.00    +0.000 C 
ENDBRANCH  18  20
ENDBRANCH  17  18
ENDBRANCH  14  17
ENDBRANCH  13  14
ENDBRANCH   1  13
TORSDOF 9
ENDMDL
MODEL 6
REMARK VINA RESULT:      -4.2      2.457      8.058
REMARK  Name = shuffle_control_esm0_ligand
REMARK  12 active torsions:
REMARK  status: ('A' for Active; 'I' for Inactive)
REMARK    1  A    between atoms: C_1  and  C_2
REMARK    2  A    between atoms: C_2  and  C_3
REMARK    3  A    between atoms: C_3  and  C_4
REMARK    4  A    between atoms: C_4  and  C_5
REMARK    5  A    between atoms: C_5  and  C_6
REMARK    6  A    between atoms: C_5  and  O_8
REMARK    7  A    between atoms: C_6  and  C_7
REMARK    8  A    between atoms: O_8  and  C_9
REMARK    9  A    between atoms: C_9  and  C_11
REMARK   10  A    between atoms: C_12  and  C_13
REMARK   11  A    between atoms: C_16  and  O_17
REMARK   12  A    between atoms: O_17  and  C_18
REMARK                            x       y       z     vdW  Elec       q    Type
REMARK                         _______ _______ _______ _____ _____    ______ ____
ROOT
ATOM      1  C   UNL     1       0.776  10.685   5.024  0.00  0.00    +0.000 C 
ATOM      2  O   UNL     1       0.908   9.537   5.310  0.00  0.00    +0.000 OA
ENDROOT
BRANCH   1   3
ATOM      3  C   UNL     1       0.423  11.753   6.009  0.00  0.00    +0.000 C 
ATOM      4  C   UNL     1      -0.816  11.892   6.443  0.00  0.00    +0.000 C 
BRANCH   4   5
ATOM      5  C   UNL     1      -1.259  13.014   7.324  0.00  0.00    +0.000 A 
ATOM      6  C   UNL     1      -1.461  14.247   6.760  0.00  0.00    +0.000 A 
ATOM      7  C   UNL     1      -1.844  15.332   7.536  0.00  0.00    +0.000 A 
ATOM      8  C   UNL     1      -2.041  15.184   8.896  0.00  0.00    +0.000 A 
ATOM      9  C   UNL     1      -1.844  13.928   9.470  0.00  0.00    +0.000 A 
ATOM     10  C   UNL     1      -1.461  12.838   8.680  0.00  0.00    +0.000 A 
BRANCH   8  11
ATOM     11  O   UNL     1      -2.402  16.215   9.688  0.00  0.00    +0.000 OA
ATOM     12  C   UNL     1      -1.723  17.464   9.567  0.00  0.00    +0.000 C 
ENDBRANCH   8  11
ENDBRANCH   4   5
ENDBRANCH   1   3
BRANCH   1  13
ATOM     13  O   UNL     1       0.930  11.126   3.751  0.00  0.00    +0.000 OA
BRANCH  13  14
ATOM     14  C   UNL     1       0.058  10.738   2.695  0.00  0.00    +0.000 C 
BRANCH  14  15
ATOM     15  C   UNL     1       0.655   9.653   1.816  0.00  0.00    +0.000 C 
ATOM     16  C   UNL     1       0.224   9.649   0.377  0.00  0.00    +0.000 C 
ENDBRANCH  14  15
BRANCH  14  17
ATOM     17  C   UNL     1      -0.189  11.937   1.839  0.00  0.00    +0.000 C 
BRANCH  17  18
ATOM     18  C   UNL     1      -1.566  12.496   1.932  0.00  0.00    +0.000 C 
BRANCH  18  20
ATOM     19  C   UNL     1      -0.976  14.570   3.295  0.00  0.00    +0.000 C 
ATOM     20  C   UNL     1      -1.865  13.393   3.095  0.00  0.00    +0.000 C 
ENDBRANCH  18  20
ENDBRANCH  17  18
ENDBRANCH  14  17
ENDBRANCH  13  14
ENDBRANCH   1  13
TORSDOF 9
ENDMDL
MODEL 7
REMARK VINA RESULT:      -4.2      2.250      7.889
REMARK  Name = shuffle_control_esm0_ligand
REMARK  12 active torsions:
REMARK  status: ('A' for Active; 'I' for Inactive)
REMARK    1  A    between atoms: C_1  and  C_2
REMARK    2  A    between atoms: C_2  and  C_3
REMARK    3  A    between atoms: C_3  and  C_4
REMARK    4  A    between atoms: C_4  and  C_5
REMARK    5  A    between atoms: C_5  and  C_6
REMARK    6  A    between atoms: C_5  and  O_8
REMARK    7  A    between atoms: C_6  and  C_7
REMARK    8  A    between atoms: O_8  and  C_9
REMARK    9  A    between atoms: C_9  and  C_11
REMARK   10  A    between atoms: C_12  and  C_13
REMARK   11  A    between atoms: C_16  and  O_17
REMARK   12  A    between atoms: O_17  and  C_18
REMARK                            x       y       z     vdW  Elec       q    Type
REMARK                         _______ _______ _______ _____ _____    ______ ____
ROOT
ATOM      1  C   UNL     1       0.806  10.597   5.206  0.00  0.00    +0.000 C 
ATOM      2  O   UNL     1       1.722   9.851   5.350  0.00  0.00    +0.000 OA
ENDROOT
BRANCH   1   3
ATOM      3  C   UNL     1       0.453  11.680   6.175  0.00  0.00    +0.000 C 
ATOM      4  C   UNL     1      -0.809  11.956   6.454  0.00  0.00    +0.000 C 
BRANCH   4   5
ATOM      5  C   UNL     1      -1.230  13.105   7.311  0.00  0.00    +0.000 A 
ATOM      6  C   UNL     1      -1.396  12.890   8.655  0.00  0.00    +0.000 A 
ATOM      7  C   UNL     1      -1.814  13.914   9.493  0.00  0.00    +0.000 A 
ATOM      8  C   UNL     1      -2.061  15.176   8.986  0.00  0.00    +0.000 A 
ATOM      9  C   UNL     1      -1.884  15.397   7.620  0.00  0.00    +0.000 A 
ATOM     10  C   UNL     1      -1.459  14.361   6.782  0.00  0.00    +0.000 A 
BRANCH   8  11
ATOM     11  O   UNL     1      -2.480  16.195   9.765  0.00  0.00    +0.000 OA
ATOM     12  C   UNL     1      -1.518  17.030  10.407  0.00  0.00    +0.000 C 
ENDBRANCH   8  11
ENDBRANCH   4   5
ENDBRANCH   1   3
BRANCH   1  13
ATOM     13  O   UNL     1      -0.017  10.519   4.131  0.00  0.00    +0.000 OA
BRANCH  13  14
ATOM     14  C   UNL     1       0.378  10.944   2.831  0.00  0.00    +0.000 C 
BRANCH  14  15
ATOM     15  C   UNL     1      -0.691  11.768   2.137  0.00  0.00    +0.000 C 
ATOM     16  C   UNL     1      -1.396  12.792   2.979  0.00  0.00    +0.000 C 
ENDBRANCH  14  15
BRANCH  14  17
ATOM     17  C   UNL     1       0.627   9.725   2.005  0.00  0.00    +0.000 C 
BRANCH  17  18
ATOM     18  C   UNL     1       0.897   9.993   0.564  0.00  0.00    +0.000 C 
BRANCH  18  20
ATOM     19  C   UNL     1      -0.682  10.203  -1.428  0.00  0.00    +0.000 C 
ATOM     20  C   UNL     1       0.003   9.328  -0.437  0.00  0.00    +0.000 C 
ENDBRANCH  18  20
ENDBRANCH  17  18
ENDBRANCH  14  17
ENDBRANCH  13  14
ENDBRANCH   1  13
TORSDOF 9
ENDMDL
MODEL 8
REMARK VINA RESULT:      -4.2      1.407      3.553
REMARK  Name = shuffle_control_esm0_ligand
REMARK  12 active torsions:
REMARK  status: ('A' for Active; 'I' for Inactive)
REMARK    1  A    between atoms: C_1  and  C_2
REMARK    2  A    between atoms: C_2  and  C_3
REMARK    3  A    between atoms: C_3  and  C_4
REMARK    4  A    between atoms: C_4  and  C_5
REMARK    5  A    between atoms: C_5  and  C_6
REMARK    6  A    between atoms: C_5  and  O_8
REMARK    7  A    between atoms: C_6  and  C_7
REMARK    8  A    between atoms: O_8  and  C_9
REMARK    9  A    between atoms: C_9  and  C_11
REMARK   10  A    between atoms: C_12  and  C_13
REMARK   11  A    between atoms: C_16  and  O_17
REMARK   12  A    between atoms: O_17  and  C_18
REMARK                            x       y       z     vdW  Elec       q    Type
REMARK                         _______ _______ _______ _____ _____    ______ ____
ROOT
ATOM      1  C   UNL     1       1.175  11.076   5.120  0.00  0.00    +0.000 C 
ATOM      2  O   UNL     1       1.915  10.496   5.850  0.00  0.00    +0.000 OA
ENDROOT
BRANCH   1   3
ATOM      3  C   UNL     1       1.009  10.752   3.671  0.00  0.00    +0.000 C 
ATOM      4  C   UNL     1       0.087  11.356   2.942  0.00  0.00    +0.000 C 
BRANCH   4   5
ATOM      5  C   UNL     1      -0.215  10.987   1.526  0.00  0.00    +0.000 A 
ATOM      6  C   UNL     1       0.297   9.815   1.033  0.00  0.00    +0.000 A 
ATOM      7  C   UNL     1       0.072   9.437  -0.283  0.00  0.00    +0.000 A 
ATOM      8  C   UNL     1      -0.685  10.235  -1.120  0.00  0.00    +0.000 A 
ATOM      9  C   UNL     1      -1.213  11.424  -0.617  0.00  0.00    +0.000 A 
ATOM     10  C   UNL     1      -0.986  11.796   0.712  0.00  0.00    +0.000 A 
BRANCH   8  11
ATOM     11  O   UNL     1      -0.917   9.910  -2.409  0.00  0.00    +0.000 OA
ATOM     12  C   UNL     1       0.163   9.918  -3.340  0.00  0.00    +0.000 C 
ENDBRANCH   8  11
ENDBRANCH   4   5
ENDBRANCH   1   3
BRANCH   1  13
ATOM     13  O   UNL     1       0.411  12.109   5.553  0.00  0.00    +0.000 OA
BRANCH  13  14
ATOM     14  C   UNL     1      -0.389  12.031   6.729  0.00  0.00    +0.000 C 
BRANCH  14  15
ATOM     15  C   UNL     1      -1.834  12.426   6.479  0.00  0.00    +0.000 C 
ATOM     16  C   UNL     1      -2.087  13.313   5.294  0.00  0.00    +0.000 C 
ENDBRANCH  14  15
BRANCH  14  17
ATOM     17  C   UNL     1       0.177  12.979   7.734  0.00  0.00    +0.000 C 
BRANCH  17  18
ATOM     18  C   UNL     1      -0.775  13.398   8.801  0.00  0.00    +0.000 C 
BRANCH  18  20
ATOM     19  C   UNL     1      -2.277  15.341   9.491  0.00  0.00    +0.000 C 
ATOM     20  C   UNL     1      -0.942  14.870   9.033  0.00  0.00    +0.000 C 
ENDBRANCH  18  20
ENDBRANCH  17  18
ENDBRANCH  14  17
ENDBRANCH  13  14
ENDBRANCH   1  13
TORSDOF 9
ENDMDL
MODEL 9
REMARK VINA RESULT:      -4.1      5.199      7.674
REMARK  Name = shuffle_control_esm0_ligand
REMARK  12 active torsions:
REMARK  status: ('A' for Active; 'I' for Inactive)
REMARK    1  A    between atoms: C_1  and  C_2
REMARK    2  A    between atoms: C_2  and  C_3
REMARK    3  A    between atoms: C_3  and  C_4
REMARK    4  A    between atoms: C_4  and  C_5
REMARK    5  A    between atoms: C_5  and  C_6
REMARK    6  A    between atoms: C_5  and  O_8
REMARK    7  A    between atoms: C_6  and  C_7
REMARK    8  A    between atoms: O_8  and  C_9
REMARK    9  A    between atoms: C_9  and  C_11
REMARK   10  A    between atoms: C_12  and  C_13
REMARK   11  A    between atoms: C_16  and  O_17
REMARK   12  A    between atoms: O_17  and  C_18
REMARK                            x       y       z     vdW  Elec       q    Type
REMARK                         _______ _______ _______ _____ _____    ______ ____
ROOT
ATOM      1  C   UNL     1       4.348   8.323   4.632  0.00  0.00    +0.000 C 
ATOM      2  O   UNL     1       5.245   8.702   5.316  0.00  0.00    +0.000 OA
ENDROOT
BRANCH   1   3
ATOM      3  C   UNL     1       4.209   6.917   4.143  0.00  0.00    +0.000 C 
ATOM      4  C   UNL     1       4.934   6.477   3.130  0.00  0.00    +0.000 C 
BRANCH   4   5
ATOM      5  C   UNL     1       4.753   5.129   2.512  0.00  0.00    +0.000 A 
ATOM      6  C   UNL     1       4.028   4.189   3.198  0.00  0.00    +0.000 A 
ATOM      7  C   UNL     1       3.853   2.911   2.684  0.00  0.00    +0.000 A 
ATOM      8  C   UNL     1       4.399   2.568   1.462  0.00  0.00    +0.000 A 
ATOM      9  C   UNL     1       5.130   3.527   0.760  0.00  0.00    +0.000 A 
ATOM     10  C   UNL     1       5.299   4.813   1.282  0.00  0.00    +0.000 A 
BRANCH   8  11
ATOM     11  O   UNL     1       4.263   1.334   0.933  0.00  0.00    +0.000 OA
ATOM     12  C   UNL     1       5.158   0.297   1.330  0.00  0.00    +0.000 C 
ENDBRANCH   8  11
ENDBRANCH   4   5
ENDBRANCH   1   3
BRANCH   1  13
ATOM     13  O   UNL     1       3.359   9.157   4.225  0.00  0.00    +0.000 OA
BRANCH  13  14
ATOM     14  C   UNL     1       2.010   8.726   4.067  0.00  0.00    +0.000 C 
BRANCH  14  15
ATOM     15  C   UNL     1       1.329   9.371   2.873  0.00  0.00    +0.000 C 
ATOM     16  C   UNL     1       2.229  10.026   1.866  0.00  0.00    +0.000 C 
ENDBRANCH  14  15
BRANCH  14  17
ATOM     17  C   UNL     1       1.255   9.121   5.294  0.00  0.00    +0.000 C 
BRANCH  17  18
ATOM     18  C   UNL     1       1.120  10.591   5.497  0.00  0.00    +0.000 C 
BRANCH  18  20
ATOM     19  C   UNL     1      -0.411  12.172   6.786  0.00  0.00    +0.000 C 
ATOM     20  C   UNL     1      -0.258  11.127   5.737  0.00  0.00    +0.000 C 
ENDBRANCH  18  20
ENDBRANCH  17  18
ENDBRANCH  14  17
ENDBRANCH  13  14
ENDBRANCH   1  13
TORSDOF 9
ENDMDL
