REMARK  Name = ox2_orig_f8_ligand
REMARK  5 active torsions:
REMARK  status: ('A' for Active; 'I' for Inactive)
REMARK    1  A    between atoms: C_1  and  O_2
REMARK    2  A    between atoms: O_2  and  C_3
REMARK    3  A    between atoms: C_6  and  C_7
REMARK    4  A    between atoms: C_7  and  C_9
REMARK    5  A    between atoms: C_15  and  O_16
REMARK                            x       y       z     vdW  Elec       q    Type
REMARK                         _______ _______ _______ _____ _____    ______ ____
ROOT
ATOM      1  C   UNL     1       1.576  -6.226  -1.250  0.00  0.00    +0.000 A 
ATOM      2  C   UNL     1       0.513  -7.099  -1.337  0.00  0.00    +0.000 A 
ATOM      3  C   UNL     1      -0.446  -7.129  -0.350  0.00  0.00    +0.000 A 
ATOM      4  C   UNL     1      -0.341  -6.293   0.735  0.00  0.00    +0.000 A 
ATOM      5  C   UNL     1       0.721  -5.396   0.823  0.00  0.00    +0.000 A 
ATOM      6  C   UNL     1       1.672  -5.374  -0.172  0.00  0.00    +0.000 A 
ENDROOT
BRANCH   1   8
ATOM      7  C   UNL     1       3.579  -5.384  -2.239  0.00  0.00    +0.000 C 
ATOM      8  O   UNL     1       2.486  -6.256  -2.261  0.00  0.00    +0.000 OA
ENDBRANCH   1   8
BRANCH   4   9
ATOM      9  C   UNL     1      -1.377  -6.343   1.772  0.00  0.00    +0.000 C 
ATOM     10  O   UNL     1      -1.753  -5.365   2.135  0.00  0.00    +0.000 OA
BRANCH   9  11
ATOM     11  C   UNL     1      -2.095  -7.483   2.286  0.00  0.00    +0.000 A 
ATOM     12  C   UNL     1      -1.458  -8.681   2.452  0.00  0.00    +0.000 A 
ATOM     13  C   UNL     1      -2.139  -9.768   2.954  0.00  0.00    +0.000 A 
ATOM     14  C   UNL     1      -3.471  -9.663   3.278  0.00  0.00    +0.000 A 
ATOM     15  C   UNL     1      -4.112  -8.451   3.132  0.00  0.00    +0.000 A 
ATOM     16  C   UNL     1      -3.425  -7.349   2.646  0.00  0.00    +0.000 A 
ENDBRANCH   9  11
ENDBRANCH   4   9
BRANCH   5  17
ATOM     17  O   UNL     1       0.808  -4.560   1.871  0.00  0.00    +0.000 OA
ATOM     18  H   UNL     1       1.563  -3.922   1.933  0.00  0.00    +0.000 HD
ENDBRANCH   5  17
TORSDOF 4
