MODEL 1
REMARK VINA RESULT:      -6.3      0.000      0.000
REMARK  Name = ox2_orig_f8_ligand
REMARK  5 active torsions:
REMARK  status: ('A' for Active; 'I' for Inactive)
REMARK    1  A    between atoms: C_1  and  O_2
REMARK    2  A    between atoms: O_2  and  C_3
REMARK    3  A    between atoms: C_6  and  C_7
REMARK    4  A    between atoms: C_7  and  C_9
REMARK    5  A    between atoms: C_15  and  O_16
REMARK                            x       y       z     vdW  Elec       q    Type
REMARK                         _______ _______ _______ _____ _____    ______ ____
ROOT
ATOM      1  C   UNL     1       0.325  -5.557   1.191  0.00  0.00    +0.000 A 
ATOM      2  C   UNL     1       0.098  -6.517   0.228  0.00  0.00    +0.000 A 
ATOM      3  C   UNL     1       0.588  -6.353  -1.048  0.00  0.00    +0.000 A 
ATOM      4  C   UNL     1       1.299  -5.222  -1.370  0.00  0.00    +0.000 A 
ATOM      5  C   UNL     1       1.547  -4.255  -0.399  0.00  0.00    +0.000 A 
ATOM      6  C   UNL     1       1.053  -4.432   0.874  0.00  0.00    +0.000 A 
ENDROOT
BRANCH   1   8
ATOM      7  C   UNL     1      -1.558  -5.585   2.658  0.00  0.00    +0.000 C 
ATOM      8  O   UNL     1      -0.194  -5.786   2.428  0.00  0.00    +0.000 OA
ENDBRANCH   1   8
BRANCH   4   9
ATOM      9  C   UNL     1       1.812  -5.072  -2.736  0.00  0.00    +0.000 C 
ATOM     10  O   UNL     1       1.656  -4.082  -3.211  0.00  0.00    +0.000 OA
BRANCH   9  11
ATOM     11  C   UNL     1       2.631  -5.977  -3.504  0.00  0.00    +0.000 A 
ATOM     12  C   UNL     1       3.752  -6.531  -2.951  0.00  0.00    +0.000 A 
ATOM     13  C   UNL     1       4.529  -7.405  -3.679  0.00  0.00    +0.000 A 
ATOM     14  C   UNL     1       4.194  -7.716  -4.975  0.00  0.00    +0.000 A 
ATOM     15  C   UNL     1       3.053  -7.176  -5.530  0.00  0.00    +0.000 A 
ATOM     16  C   UNL     1       2.257  -6.311  -4.794  0.00  0.00    +0.000 A 
ENDBRANCH   9  11
ENDBRANCH   4   9
BRANCH   5  17
ATOM     17  O   UNL     1       2.265  -3.162  -0.708  0.00  0.00    +0.000 OA
ATOM     18  H   UNL     1       2.075  -2.666  -1.544  0.00  0.00    +0.000 HD
ENDBRANCH   5  17
TORSDOF 4
ENDMDL
MODEL 2
REMARK VINA RESULT:      -6.0      1.263      1.989
REMARK  Name = ox2_orig_f8_ligand
REMARK  5 active torsions:
REMARK  status: ('A' for Active; 'I' for Inactive)
REMARK    1  A    between atoms: C_1  and  O_2
REMARK    2  A    between atoms: O_2  and  C_3
REMARK    3  A    between atoms: C_6  and  C_7
REMARK    4  A    between atoms: C_7  and  C_9
REMARK    5  A    between atoms: C_15  and  O_16
REMARK                            x       y       z     vdW  Elec       q    Type
REMARK                         _______ _______ _______ _____ _____    ______ ____
ROOT
ATOM      1  C   UNL     1       0.364  -5.592   1.364  0.00  0.00    +0.000 A 
ATOM      2  C   UNL     1       0.328  -6.696   0.538  0.00  0.00    +0.000 A 
ATOM      3  C   UNL     1       0.949  -6.666  -0.690  0.00  0.00    +0.000 A 
ATOM      4  C   UNL     1       1.601  -5.530  -1.103  0.00  0.00    +0.000 A 
ATOM      5  C   UNL     1       1.656  -4.416  -0.268  0.00  0.00    +0.000 A 
ATOM      6  C   UNL     1       1.033  -4.459   0.959  0.00  0.00    +0.000 A 
ENDROOT
BRANCH   1   8
ATOM      7  C   UNL     1      -1.660  -5.512   2.627  0.00  0.00    +0.000 C 
ATOM      8  O   UNL     1      -0.275  -5.694   2.561  0.00  0.00    +0.000 OA
ENDBRANCH   1   8
BRANCH   4   9
ATOM      9  C   UNL     1       2.256  -5.525  -2.415  0.00  0.00    +0.000 C 
ATOM     10  O   UNL     1       3.363  -5.592  -2.409  0.00  0.00    +0.000 OA
BRANCH   9  11
ATOM     11  C   UNL     1       1.664  -5.600  -3.728  0.00  0.00    +0.000 A 
ATOM     12  C   UNL     1       2.311  -6.253  -4.739  0.00  0.00    +0.000 A 
ATOM     13  C   UNL     1       1.742  -6.336  -5.991  0.00  0.00    +0.000 A 
ATOM     14  C   UNL     1       0.524  -5.749  -6.239  0.00  0.00    +0.000 A 
ATOM     15  C   UNL     1      -0.142  -5.107  -5.216  0.00  0.00    +0.000 A 
ATOM     16  C   UNL     1       0.418  -5.039  -3.950  0.00  0.00    +0.000 A 
ENDBRANCH   9  11
ENDBRANCH   4   9
BRANCH   5  17
ATOM     17  O   UNL     1       2.316  -3.314  -0.662  0.00  0.00    +0.000 OA
ATOM     18  H   UNL     1       3.293  -3.246  -0.518  0.00  0.00    +0.000 HD
ENDBRANCH   5  17
TORSDOF 4
ENDMDL
MODEL 3
REMARK VINA RESULT:      -5.9      2.953      4.383
REMARK  Name = ox2_orig_f8_ligand
REMARK  5 active torsions:
REMARK  status: ('A' for Active; 'I' for Inactive)
REMARK    1  A    between atoms: C_1  and  O_2
REMARK    2  A    between atoms: O_2  and  C_3
REMARK    3  A    between atoms: C_6  and  C_7
REMARK    4  A    between atoms: C_7  and  C_9
REMARK    5  A    between atoms: C_15  and  O_16
REMARK                            x       y       z     vdW  Elec       q    Type
REMARK                         _______ _______ _______ _____ _____    ______ ____
ROOT
ATOM      1  C   UNL     1       1.824  -4.253  -1.479  0.00  0.00    +0.000 A 
ATOM      2  C   UNL     1       0.844  -3.451  -2.023  0.00  0.00    +0.000 A 
ATOM      3  C   UNL     1       0.445  -3.628  -3.328  0.00  0.00    +0.000 A 
ATOM      4  C   UNL     1       1.032  -4.601  -4.100  0.00  0.00    +0.000 A 
ATOM      5  C   UNL     1       2.012  -5.427  -3.553  0.00  0.00    +0.000 A 
ATOM      6  C   UNL     1       2.401  -5.241  -2.246  0.00  0.00    +0.000 A 
ENDROOT
BRANCH   1   8
ATOM      7  C   UNL     1       1.433  -4.602   0.850  0.00  0.00    +0.000 C 
ATOM      8  O   UNL     1       2.169  -4.016  -0.184  0.00  0.00    +0.000 OA
ENDBRANCH   1   8
BRANCH   4   9
ATOM      9  C   UNL     1       0.587  -4.771  -5.487  0.00  0.00    +0.000 C 
ATOM     10  O   UNL     1       1.196  -4.262  -6.261  0.00  0.00    +0.000 OA
BRANCH   9  11
ATOM     11  C   UNL     1      -0.442  -5.633  -6.013  0.00  0.00    +0.000 A 
ATOM     12  C   UNL     1      -0.861  -6.721  -5.300  0.00  0.00    +0.000 A 
ATOM     13  C   UNL     1      -1.853  -7.539  -5.795  0.00  0.00    +0.000 A 
ATOM     14  C   UNL     1      -2.420  -7.277  -7.020  0.00  0.00    +0.000 A 
ATOM     15  C   UNL     1      -2.016  -6.168  -7.733  0.00  0.00    +0.000 A 
ATOM     16  C   UNL     1      -1.032  -5.331  -7.229  0.00  0.00    +0.000 A 
ENDBRANCH   9  11
ENDBRANCH   4   9
BRANCH   5  17
ATOM     17  O   UNL     1       2.567  -6.395  -4.301  0.00  0.00    +0.000 OA
ATOM     18  H   UNL     1       3.304  -6.177  -4.925  0.00  0.00    +0.000 HD
ENDBRANCH   5  17
TORSDOF 4
ENDMDL
MODEL 4
REMARK VINA RESULT:      -5.9      2.651      4.517
REMARK  Name = ox2_orig_f8_ligand
REMARK  5 active torsions:
REMARK  status: ('A' for Active; 'I' for Inactive)
REMARK    1  A    between atoms: C_1  and  O_2
REMARK    2  A    between atoms: O_2  and  C_3
REMARK    3  A    between atoms: C_6  and  C_7
REMARK    4  A    between atoms: C_7  and  C_9
REMARK    5  A    between atoms: C_15  and  O_16
REMARK                            x       y       z     vdW  Elec       q    Type
REMARK                         _______ _______ _______ _____ _____    ______ ____
ROOT
ATOM      1  C   UNL     1      -3.577  -7.403   1.734  0.00  0.00    +0.000 A 
ATOM      2  C   UNL     1      -2.919  -7.969   0.663  0.00  0.00    +0.000 A 
ATOM      3  C   UNL     1      -1.615  -7.624   0.386  0.00  0.00    +0.000 A 
ATOM      4  C   UNL     1      -0.966  -6.704   1.173  0.00  0.00    +0.000 A 
ATOM      5  C   UNL     1      -1.618  -6.140   2.267  0.00  0.00    +0.000 A 
ATOM      6  C   UNL     1      -2.921  -6.495   2.535  0.00  0.00    +0.000 A 
ENDROOT
BRANCH   1   8
ATOM      7  C   UNL     1      -5.536  -8.530   0.965  0.00  0.00    +0.000 C 
ATOM      8  O   UNL     1      -4.865  -7.790   1.943  0.00  0.00    +0.000 OA
ENDBRANCH   1   8
BRANCH   4   9
ATOM      9  C   UNL     1       0.423  -6.356   0.858  0.00  0.00    +0.000 C 
ATOM     10  O   UNL     1       1.205  -6.906   1.421  0.00  0.00    +0.000 OA
BRANCH   9  11
ATOM     11  C   UNL     1       0.933  -5.507  -0.190  0.00  0.00    +0.000 A 
ATOM     12  C   UNL     1       1.195  -4.188   0.058  0.00  0.00    +0.000 A 
ATOM     13  C   UNL     1       1.693  -3.378  -0.939  0.00  0.00    +0.000 A 
ATOM     14  C   UNL     1       1.916  -3.884  -2.197  0.00  0.00    +0.000 A 
ATOM     15  C   UNL     1       1.674  -5.219  -2.446  0.00  0.00    +0.000 A 
ATOM     16  C   UNL     1       1.191  -6.042  -1.440  0.00  0.00    +0.000 A 
ENDBRANCH   9  11
ENDBRANCH   4   9
BRANCH   5  17
ATOM     17  O   UNL     1      -0.974  -5.261   3.052  0.00  0.00    +0.000 OA
ATOM     18  H   UNL     1      -0.947  -4.302   2.802  0.00  0.00    +0.000 HD
ENDBRANCH   5  17
TORSDOF 4
ENDMDL
MODEL 5
REMARK VINA RESULT:      -5.9      2.764      4.642
REMARK  Name = ox2_orig_f8_ligand
REMARK  5 active torsions:
REMARK  status: ('A' for Active; 'I' for Inactive)
REMARK    1  A    between atoms: C_1  and  O_2
REMARK    2  A    between atoms: O_2  and  C_3
REMARK    3  A    between atoms: C_6  and  C_7
REMARK    4  A    between atoms: C_7  and  C_9
REMARK    5  A    between atoms: C_15  and  O_16
REMARK                            x       y       z     vdW  Elec       q    Type
REMARK                         _______ _______ _______ _____ _____    ______ ____
ROOT
ATOM      1  C   UNL     1      -2.700  -7.915   2.982  0.00  0.00    +0.000 A 
ATOM      2  C   UNL     1      -1.548  -8.521   2.529  0.00  0.00    +0.000 A 
ATOM      3  C   UNL     1      -0.473  -7.760   2.128  0.00  0.00    +0.000 A 
ATOM      4  C   UNL     1      -0.549  -6.389   2.168  0.00  0.00    +0.000 A 
ATOM      5  C   UNL     1      -1.703  -5.769   2.639  0.00  0.00    +0.000 A 
ATOM      6  C   UNL     1      -2.770  -6.540   3.040  0.00  0.00    +0.000 A 
ENDROOT
BRANCH   1   8
ATOM      7  C   UNL     1      -3.979  -9.901   2.637  0.00  0.00    +0.000 C 
ATOM      8  O   UNL     1      -3.722  -8.731   3.358  0.00  0.00    +0.000 OA
ENDBRANCH   1   8
BRANCH   4   9
ATOM      9  C   UNL     1       0.611  -5.602   1.736  0.00  0.00    +0.000 C 
ATOM     10  O   UNL     1       1.336  -5.324   2.529  0.00  0.00    +0.000 OA
BRANCH   9  11
ATOM     11  C   UNL     1       1.034  -5.262   0.400  0.00  0.00    +0.000 A 
ATOM     12  C   UNL     1       1.319  -3.965   0.077  0.00  0.00    +0.000 A 
ATOM     13  C   UNL     1       1.734  -3.639  -1.196  0.00  0.00    +0.000 A 
ATOM     14  C   UNL     1       1.850  -4.614  -2.158  0.00  0.00    +0.000 A 
ATOM     15  C   UNL     1       1.584  -5.927  -1.831  0.00  0.00    +0.000 A 
ATOM     16  C   UNL     1       1.185  -6.262  -0.545  0.00  0.00    +0.000 A 
ENDBRANCH   9  11
ENDBRANCH   4   9
BRANCH   5  17
ATOM     17  O   UNL     1      -1.766  -4.428   2.703  0.00  0.00    +0.000 OA
ATOM     18  H   UNL     1      -0.999  -3.914   3.062  0.00  0.00    +0.000 HD
ENDBRANCH   5  17
TORSDOF 4
ENDMDL
MODEL 6
REMARK VINA RESULT:      -5.8      1.758      5.785
REMARK  Name = ox2_orig_f8_ligand
REMARK  5 active torsions:
REMARK  status: ('A' for Active; 'I' for Inactive)
REMARK    1  A    between atoms: C_1  and  O_2
REMARK    2  A    between atoms: O_2  and  C_3
REMARK    3  A    between atoms: C_6  and  C_7
REMARK    4  A    between atoms: C_7  and  C_9
REMARK    5  A    between atoms: C_15  and  O_16
REMARK                            x       y       z     vdW  Elec       q    Type
REMARK                         _______ _______ _______ _____ _____    ______ ____
ROOT
ATOM      1  C   UNL     1       1.753  -5.540  -4.606  0.00  0.00    +0.000 A 
ATOM      2  C   UNL     1       2.395  -6.303  -3.655  0.00  0.00    +0.000 A 
ATOM      3  C   UNL     1       2.374  -5.927  -2.331  0.00  0.00    +0.000 A 
ATOM      4  C   UNL     1       1.718  -4.781  -1.953  0.00  0.00    +0.000 A 
ATOM      5  C   UNL     1       1.053  -4.013  -2.905  0.00  0.00    +0.000 A 
ATOM      6  C   UNL     1       1.079  -4.400  -4.225  0.00  0.00    +0.000 A 
ENDROOT
BRANCH   1   8
ATOM      7  C   UNL     1       0.811  -5.623  -6.799  0.00  0.00    +0.000 C 
ATOM      8  O   UNL     1       1.820  -5.971  -5.895  0.00  0.00    +0.000 OA
ENDBRANCH   1   8
BRANCH   4   9
ATOM      9  C   UNL     1       1.709  -4.404  -0.535  0.00  0.00    +0.000 C 
ATOM     10  O   UNL     1       2.150  -3.418  -0.288  0.00  0.00    +0.000 OA
BRANCH   9  11
ATOM     11  C   UNL     1       1.068  -5.063   0.576  0.00  0.00    +0.000 A 
ATOM     12  C   UNL     1       1.677  -5.098   1.800  0.00  0.00    +0.000 A 
ATOM     13  C   UNL     1       1.061  -5.716   2.866  0.00  0.00    +0.000 A 
ATOM     14  C   UNL     1      -0.164  -6.318   2.706  0.00  0.00    +0.000 A 
ATOM     15  C   UNL     1      -0.791  -6.267   1.479  0.00  0.00    +0.000 A 
ATOM     16  C   UNL     1      -0.184  -5.628   0.408  0.00  0.00    +0.000 A 
ENDBRANCH   9  11
ENDBRANCH   4   9
BRANCH   5  17
ATOM     17  O   UNL     1       0.389  -2.906  -2.530  0.00  0.00    +0.000 OA
ATOM     18  H   UNL     1      -0.111  -2.378  -3.202  0.00  0.00    +0.000 HD
ENDBRANCH   5  17
TORSDOF 4
ENDMDL
MODEL 7
REMARK VINA RESULT:      -5.7      3.418      6.346
REMARK  Name = ox2_orig_f8_ligand
REMARK  5 active torsions:
REMARK  status: ('A' for Active; 'I' for Inactive)
REMARK    1  A    between atoms: C_1  and  O_2
REMARK    2  A    between atoms: O_2  and  C_3
REMARK    3  A    between atoms: C_6  and  C_7
REMARK    4  A    between atoms: C_7  and  C_9
REMARK    5  A    between atoms: C_15  and  O_16
REMARK                            x       y       z     vdW  Elec       q    Type
REMARK                         _______ _______ _______ _____ _____    ______ ____
ROOT
ATOM      1  C   UNL     1      -1.751  -6.438  -6.864  0.00  0.00    +0.000 A 
ATOM      2  C   UNL     1      -1.596  -7.115  -5.673  0.00  0.00    +0.000 A 
ATOM      3  C   UNL     1      -0.533  -6.833  -4.845  0.00  0.00    +0.000 A 
ATOM      4  C   UNL     1       0.387  -5.879  -5.209  0.00  0.00    +0.000 A 
ATOM      5  C   UNL     1       0.229  -5.178  -6.402  0.00  0.00    +0.000 A 
ATOM      6  C   UNL     1      -0.840  -5.468  -7.220  0.00  0.00    +0.000 A 
ENDROOT
BRANCH   1   8
ATOM      7  C   UNL     1      -2.919  -6.290  -8.940  0.00  0.00    +0.000 C 
ATOM      8  O   UNL     1      -2.823  -6.773  -7.631  0.00  0.00    +0.000 OA
ENDBRANCH   1   8
BRANCH   4   9
ATOM      9  C   UNL     1       1.509  -5.596  -4.308  0.00  0.00    +0.000 C 
ATOM     10  O   UNL     1       2.480  -6.062  -4.575  0.00  0.00    +0.000 OA
BRANCH   9  11
ATOM     11  C   UNL     1       1.578  -4.672  -3.204  0.00  0.00    +0.000 A 
ATOM     12  C   UNL     1       1.119  -3.392  -3.346  0.00  0.00    +0.000 A 
ATOM     13  C   UNL     1       1.173  -2.511  -2.288  0.00  0.00    +0.000 A 
ATOM     14  C   UNL     1       1.704  -2.906  -1.083  0.00  0.00    +0.000 A 
ATOM     15  C   UNL     1       2.148  -4.202  -0.929  0.00  0.00    +0.000 A 
ATOM     16  C   UNL     1       2.077  -5.098  -1.985  0.00  0.00    +0.000 A 
ENDBRANCH   9  11
ENDBRANCH   4   9
BRANCH   5  17
ATOM     17  O   UNL     1       1.114  -4.227  -6.744  0.00  0.00    +0.000 OA
ATOM     18  H   UNL     1       1.227  -3.428  -6.169  0.00  0.00    +0.000 HD
ENDBRANCH   5  17
TORSDOF 4
ENDMDL
MODEL 8
REMARK VINA RESULT:      -5.7      2.810      4.033
REMARK  Name = ox2_orig_f8_ligand
REMARK  5 active torsions:
REMARK  status: ('A' for Active; 'I' for Inactive)
REMARK    1  A    between atoms: C_1  and  O_2
REMARK    2  A    between atoms: O_2  and  C_3
REMARK    3  A    between atoms: C_6  and  C_7
REMARK    4  A    between atoms: C_7  and  C_9
REMARK    5  A    between atoms: C_15  and  O_16
REMARK                            x       y       z     vdW  Elec       q    Type
REMARK                         _______ _______ _______ _____ _____    ______ ____
ROOT
ATOM      1  C   UNL     1      -2.174  -6.673   2.448  0.00  0.00    +0.000 A 
ATOM      2  C   UNL     1      -1.221  -5.696   2.640  0.00  0.00    +0.000 A 
ATOM      3  C   UNL     1      -0.247  -5.477   1.691  0.00  0.00    +0.000 A 
ATOM      4  C   UNL     1      -0.215  -6.242   0.551  0.00  0.00    +0.000 A 
ATOM      5  C   UNL     1      -1.184  -7.221   0.341  0.00  0.00    +0.000 A 
ATOM      6  C   UNL     1      -2.154  -7.428   1.296  0.00  0.00    +0.000 A 
ENDROOT
BRANCH   1   8
ATOM      7  C   UNL     1      -4.315  -7.466   3.143  0.00  0.00    +0.000 C 
ATOM      8  O   UNL     1      -3.102  -6.834   3.430  0.00  0.00    +0.000 OA
ENDBRANCH   1   8
BRANCH   4   9
ATOM      9  C   UNL     1       0.831  -5.988  -0.445  0.00  0.00    +0.000 C 
ATOM     10  O   UNL     1       1.514  -6.834  -0.663  0.00  0.00    +0.000 OA
BRANCH   9  11
ATOM     11  C   UNL     1       1.012  -4.842  -1.302  0.00  0.00    +0.000 A 
ATOM     12  C   UNL     1       1.437  -3.652  -0.780  0.00  0.00    +0.000 A 
ATOM     13  C   UNL     1       1.622  -2.560  -1.599  0.00  0.00    +0.000 A 
ATOM     14  C   UNL     1       1.365  -2.652  -2.947  0.00  0.00    +0.000 A 
ATOM     15  C   UNL     1       0.957  -3.856  -3.480  0.00  0.00    +0.000 A 
ATOM     16  C   UNL     1       0.789  -4.963  -2.663  0.00  0.00    +0.000 A 
ENDBRANCH   9  11
ENDBRANCH   4   9
BRANCH   5  17
ATOM     17  O   UNL     1      -1.168  -7.950  -0.787  0.00  0.00    +0.000 OA
ATOM     18  H   UNL     1      -0.595  -8.756  -0.847  0.00  0.00    +0.000 HD
ENDBRANCH   5  17
TORSDOF 4
ENDMDL
MODEL 9
REMARK VINA RESULT:      -5.6      2.673      3.981
REMARK  Name = ox2_orig_f8_ligand
REMARK  5 active torsions:
REMARK  status: ('A' for Active; 'I' for Inactive)
REMARK    1  A    between atoms: C_1  and  O_2
REMARK    2  A    between atoms: O_2  and  C_3
REMARK    3  A    between atoms: C_6  and  C_7
REMARK    4  A    between atoms: C_7  and  C_9
REMARK    5  A    between atoms: C_15  and  O_16
REMARK                            x       y       z     vdW  Elec       q    Type
REMARK                         _______ _______ _______ _____ _____    ______ ____
ROOT
ATOM      1  C   UNL     1      -1.240  -8.396   1.176  0.00  0.00    +0.000 A 
ATOM      2  C   UNL     1      -0.138  -8.499   0.355  0.00  0.00    +0.000 A 
ATOM      3  C   UNL     1       0.614  -7.386   0.055  0.00  0.00    +0.000 A 
ATOM      4  C   UNL     1       0.261  -6.161   0.566  0.00  0.00    +0.000 A 
ATOM      5  C   UNL     1      -0.842  -6.050   1.411  0.00  0.00    +0.000 A 
ATOM      6  C   UNL     1      -1.583  -7.172   1.705  0.00  0.00    +0.000 A 
ENDROOT
BRANCH   1   8
ATOM      7  C   UNL     1      -2.258  -9.884   2.741  0.00  0.00    +0.000 C 
ATOM      8  O   UNL     1      -1.936  -9.538   1.425  0.00  0.00    +0.000 OA
ENDBRANCH   1   8
BRANCH   4   9
ATOM      9  C   UNL     1       1.079  -4.990   0.233  0.00  0.00    +0.000 C 
ATOM     10  O   UNL     1       1.831  -4.688   0.990  0.00  0.00    +0.000 OA
BRANCH   9  11
ATOM     11  C   UNL     1       1.158  -4.259  -1.008  0.00  0.00    +0.000 A 
ATOM     12  C   UNL     1       1.450  -2.924  -1.003  0.00  0.00    +0.000 A 
ATOM     13  C   UNL     1       1.538  -2.227  -2.188  0.00  0.00    +0.000 A 
ATOM     14  C   UNL     1       1.317  -2.864  -3.386  0.00  0.00    +0.000 A 
ATOM     15  C   UNL     1       1.043  -4.215  -3.396  0.00  0.00    +0.000 A 
ATOM     16  C   UNL     1       0.973  -4.925  -2.207  0.00  0.00    +0.000 A 
ENDBRANCH   9  11
ENDBRANCH   4   9
BRANCH   5  17
ATOM     17  O   UNL     1      -1.170  -4.856   1.932  0.00  0.00    +0.000 OA
ATOM     18  H   UNL     1      -2.108  -4.670   2.188  0.00  0.00    +0.000 HD
ENDBRANCH   5  17
TORSDOF 4
ENDMDL
