REMARK  Name = bgox31_4_ligand
REMARK  5 active torsions:
REMARK  status: ('A' for Active; 'I' for Inactive)
REMARK    1  A    between atoms: C_1  and  O_2
REMARK    2  A    between atoms: O_2  and  C_3
REMARK    3  A    between atoms: C_6  and  C_7
REMARK    4  A    between atoms: C_7  and  C_9
REMARK    5  A    between atoms: C_15  and  O_16
REMARK                            x       y       z     vdW  Elec       q    Type
REMARK                         _______ _______ _______ _____ _____    ______ ____
ROOT
ATOM      1  C   UNL     1       0.245   1.794   8.786  0.00  0.00    +0.000 A 
ATOM      2  C   UNL     1       1.036   0.733   8.437  0.00  0.00    +0.000 A 
ATOM      3  C   UNL     1       2.396   0.635   8.905  0.00  0.00    +0.000 A 
ATOM      4  C   UNL     1       2.879   1.700   9.678  0.00  0.00    +0.000 A 
ATOM      5  C   UNL     1       2.049   2.756  10.035  0.00  0.00    +0.000 A 
ATOM      6  C   UNL     1       0.717   2.835   9.589  0.00  0.00    +0.000 A 
ENDROOT
BRANCH   1   8
ATOM      7  C   UNL     1      -1.775   3.055   8.608  0.00  0.00    +0.000 C 
ATOM      8  O   UNL     1      -1.052   1.823   8.340  0.00  0.00    +0.000 OA
ENDBRANCH   1   8
BRANCH   4   9
ATOM      9  C   UNL     1       4.281   1.606  10.121  0.00  0.00    +0.000 C 
ATOM     10  O   UNL     1       4.559   0.656  10.926  0.00  0.00    +0.000 OA
BRANCH   9  11
ATOM     11  C   UNL     1       5.391   2.354   9.527  0.00  0.00    +0.000 A 
ATOM     12  C   UNL     1       6.686   1.963   9.895  0.00  0.00    +0.000 A 
ATOM     13  C   UNL     1       7.786   2.709   9.420  0.00  0.00    +0.000 A 
ATOM     14  C   UNL     1       7.572   3.843   8.701  0.00  0.00    +0.000 A 
ATOM     15  C   UNL     1       6.300   4.283   8.379  0.00  0.00    +0.000 A 
ATOM     16  C   UNL     1       5.177   3.552   8.817  0.00  0.00    +0.000 A 
ENDBRANCH   9  11
ENDBRANCH   4   9
BRANCH   5  17
ATOM     17  O   UNL     1       2.592   3.778  10.832  0.00  0.00    +0.000 OA
ATOM     18  H   UNL     1       2.028   4.545  11.105  0.00  0.00    +0.000 HD
ENDBRANCH   5  17
TORSDOF 4
