MODEL 1
REMARK VINA RESULT:      -4.7      0.000      0.000
REMARK  Name = bgox31_4_ligand
REMARK  5 active torsions:
REMARK  status: ('A' for Active; 'I' for Inactive)
REMARK    1  A    between atoms: C_1  and  O_2
REMARK    2  A    between atoms: O_2  and  C_3
REMARK    3  A    between atoms: C_6  and  C_7
REMARK    4  A    between atoms: C_7  and  C_9
REMARK    5  A    between atoms: C_15  and  O_16
REMARK                            x       y       z     vdW  Elec       q    Type
REMARK                         _______ _______ _______ _____ _____    ______ ____
ROOT
ATOM      1  C   UNL     1      12.620   3.466   8.510  0.00  0.00    +0.000 A 
ATOM      2  C   UNL     1      12.348   3.068   9.791  0.00  0.00    +0.000 A 
ATOM      3  C   UNL     1      11.676   1.821  10.055  0.00  0.00    +0.000 A 
ATOM      4  C   UNL     1      11.267   1.073   8.942  0.00  0.00    +0.000 A 
ATOM      5  C   UNL     1      11.573   1.489   7.652  0.00  0.00    +0.000 A 
ATOM      6  C   UNL     1      12.246   2.700   7.404  0.00  0.00    +0.000 A 
ENDROOT
BRANCH   1   8
ATOM      7  C   UNL     1      12.615   5.835   8.812  0.00  0.00    +0.000 C 
ATOM      8  O   UNL     1      13.290   4.647   8.316  0.00  0.00    +0.000 OA
ENDBRANCH   1   8
BRANCH   4   9
ATOM      9  C   UNL     1      10.550  -0.183   9.223  0.00  0.00    +0.000 C 
ATOM     10  O   UNL     1      11.137  -1.261   8.876  0.00  0.00    +0.000 OA
BRANCH   9  11
ATOM     11  C   UNL     1       9.359  -0.287  10.068  0.00  0.00    +0.000 A 
ATOM     12  C   UNL     1       8.220   0.412   9.645  0.00  0.00    +0.000 A 
ATOM     13  C   UNL     1       7.075   0.416  10.470  0.00  0.00    +0.000 A 
ATOM     14  C   UNL     1       7.125  -0.169  11.697  0.00  0.00    +0.000 A 
ATOM     15  C   UNL     1       8.259  -0.811  12.161  0.00  0.00    +0.000 A 
ATOM     16  C   UNL     1       9.416  -0.855  11.356  0.00  0.00    +0.000 A 
ENDBRANCH   9  11
ENDBRANCH   4   9
BRANCH   5  17
ATOM     17  O   UNL     1      11.154   0.679   6.583  0.00  0.00    +0.000 OA
ATOM     18  H   UNL     1      10.607  -0.128   6.759  0.00  0.00    +0.000 HD
ENDBRANCH   5  17
TORSDOF 4
ENDMDL
MODEL 2
REMARK VINA RESULT:      -4.5      1.814      5.941
REMARK  Name = bgox31_4_ligand
REMARK  5 active torsions:
REMARK  status: ('A' for Active; 'I' for Inactive)
REMARK    1  A    between atoms: C_1  and  O_2
REMARK    2  A    between atoms: O_2  and  C_3
REMARK    3  A    between atoms: C_6  and  C_7
REMARK    4  A    between atoms: C_7  and  C_9
REMARK    5  A    between atoms: C_15  and  O_16
REMARK                            x       y       z     vdW  Elec       q    Type
REMARK                         _______ _______ _______ _____ _____    ______ ____
ROOT
ATOM      1  C   UNL     1       7.108  -0.387  11.561  0.00  0.00    +0.000 A 
ATOM      2  C   UNL     1       7.105   0.308  10.382  0.00  0.00    +0.000 A 
ATOM      3  C   UNL     1       8.288   0.386   9.562  0.00  0.00    +0.000 A 
ATOM      4  C   UNL     1       9.445  -0.231  10.058  0.00  0.00    +0.000 A 
ATOM      5  C   UNL     1       9.417  -0.947  11.248  0.00  0.00    +0.000 A 
ATOM      6  C   UNL     1       8.253  -1.033  12.034  0.00  0.00    +0.000 A 
ENDROOT
BRANCH   1   8
ATOM      7  C   UNL     1       6.118  -0.503  13.731  0.00  0.00    +0.000 C 
ATOM      8  O   UNL     1       5.947  -0.456  12.288  0.00  0.00    +0.000 OA
ENDBRANCH   1   8
BRANCH   4   9
ATOM      9  C   UNL     1      10.657  -0.115   9.228  0.00  0.00    +0.000 C 
ATOM     10  O   UNL     1      11.082  -1.192   8.692  0.00  0.00    +0.000 OA
BRANCH   9  11
ATOM     11  C   UNL     1      11.245   1.153   8.790  0.00  0.00    +0.000 A 
ATOM     12  C   UNL     1      11.355   1.355   7.408  0.00  0.00    +0.000 A 
ATOM     13  C   UNL     1      11.996   2.521   6.936  0.00  0.00    +0.000 A 
ATOM     14  C   UNL     1      12.579   3.374   7.820  0.00  0.00    +0.000 A 
ATOM     15  C   UNL     1      12.537   3.162   9.187  0.00  0.00    +0.000 A 
ATOM     16  C   UNL     1      11.887   2.020   9.696  0.00  0.00    +0.000 A 
ENDBRANCH   9  11
ENDBRANCH   4   9
BRANCH   5  17
ATOM     17  O   UNL     1      10.607  -1.560  11.675  0.00  0.00    +0.000 OA
ATOM     18  H   UNL     1      10.954  -2.355  11.195  0.00  0.00    +0.000 HD
ENDBRANCH   5  17
TORSDOF 4
ENDMDL
MODEL 3
REMARK VINA RESULT:      -4.5     13.216     14.800
REMARK  Name = bgox31_4_ligand
REMARK  5 active torsions:
REMARK  status: ('A' for Active; 'I' for Inactive)
REMARK    1  A    between atoms: C_1  and  O_2
REMARK    2  A    between atoms: O_2  and  C_3
REMARK    3  A    between atoms: C_6  and  C_7
REMARK    4  A    between atoms: C_7  and  C_9
REMARK    5  A    between atoms: C_15  and  O_16
REMARK                            x       y       z     vdW  Elec       q    Type
REMARK                         _______ _______ _______ _____ _____    ______ ____
ROOT
ATOM      1  C   UNL     1       0.432  -0.354   0.239  0.00  0.00    +0.000 A 
ATOM      2  C   UNL     1       1.463  -1.218  -0.011  0.00  0.00    +0.000 A 
ATOM      3  C   UNL     1       1.219  -2.620  -0.238  0.00  0.00    +0.000 A 
ATOM      4  C   UNL     1      -0.108  -3.059  -0.130  0.00  0.00    +0.000 A 
ATOM      5  C   UNL     1      -1.140  -2.158   0.105  0.00  0.00    +0.000 A 
ATOM      6  C   UNL     1      -0.895  -0.787   0.307  0.00  0.00    +0.000 A 
ENDROOT
BRANCH   1   8
ATOM      7  C   UNL     1       1.659   1.276   1.480  0.00  0.00    +0.000 C 
ATOM      8  O   UNL     1       0.715   0.977   0.416  0.00  0.00    +0.000 OA
ENDBRANCH   1   8
BRANCH   4   9
ATOM      9  C   UNL     1      -0.341  -4.500  -0.328  0.00  0.00    +0.000 C 
ATOM     10  O   UNL     1      -0.911  -4.838  -1.418  0.00  0.00    +0.000 OA
BRANCH   9  11
ATOM     11  C   UNL     1       0.241  -5.557   0.502  0.00  0.00    +0.000 A 
ATOM     12  C   UNL     1       0.407  -6.813  -0.097  0.00  0.00    +0.000 A 
ATOM     13  C   UNL     1       0.880  -7.887   0.687  0.00  0.00    +0.000 A 
ATOM     14  C   UNL     1       1.071  -7.714   2.022  0.00  0.00    +0.000 A 
ATOM     15  C   UNL     1       0.853  -6.499   2.647  0.00  0.00    +0.000 A 
ATOM     16  C   UNL     1       0.402  -5.397   1.893  0.00  0.00    +0.000 A 
ENDBRANCH   9  11
ENDBRANCH   4   9
BRANCH   5  17
ATOM     17  O   UNL     1      -2.449  -2.662   0.177  0.00  0.00    +0.000 OA
ATOM     18  H   UNL     1      -2.605  -3.594   0.476  0.00  0.00    +0.000 HD
ENDBRANCH   5  17
TORSDOF 4
ENDMDL
MODEL 4
REMARK VINA RESULT:      -4.4      8.381     10.651
REMARK  Name = bgox31_4_ligand
REMARK  5 active torsions:
REMARK  status: ('A' for Active; 'I' for Inactive)
REMARK    1  A    between atoms: C_1  and  O_2
REMARK    2  A    between atoms: O_2  and  C_3
REMARK    3  A    between atoms: C_6  and  C_7
REMARK    4  A    between atoms: C_7  and  C_9
REMARK    5  A    between atoms: C_15  and  O_16
REMARK                            x       y       z     vdW  Elec       q    Type
REMARK                         _______ _______ _______ _____ _____    ______ ____
ROOT
ATOM      1  C   UNL     1       6.582   7.446  11.805  0.00  0.00    +0.000 A 
ATOM      2  C   UNL     1       6.491   6.993  10.517  0.00  0.00    +0.000 A 
ATOM      3  C   UNL     1       6.502   7.911   9.405  0.00  0.00    +0.000 A 
ATOM      4  C   UNL     1       6.549   9.278   9.711  0.00  0.00    +0.000 A 
ATOM      5  C   UNL     1       6.661   9.711  11.027  0.00  0.00    +0.000 A 
ATOM      6  C   UNL     1       6.668   8.808  12.105  0.00  0.00    +0.000 A 
ENDROOT
BRANCH   1   8
ATOM      7  C   UNL     1       6.234   7.047  14.134  0.00  0.00    +0.000 C 
ATOM      8  O   UNL     1       6.599   6.529  12.825  0.00  0.00    +0.000 OA
ENDBRANCH   1   8
BRANCH   4   9
ATOM      9  C   UNL     1       6.524  10.207   8.568  0.00  0.00    +0.000 C 
ATOM     10  O   UNL     1       7.582  10.890   8.368  0.00  0.00    +0.000 OA
BRANCH   9  11
ATOM     11  C   UNL     1       5.489  10.220   7.531  0.00  0.00    +0.000 A 
ATOM     12  C   UNL     1       5.914  10.013   6.211  0.00  0.00    +0.000 A 
ATOM     13  C   UNL     1       4.969  10.105   5.167  0.00  0.00    +0.000 A 
ATOM     14  C   UNL     1       3.693  10.486   5.443  0.00  0.00    +0.000 A 
ATOM     15  C   UNL     1       3.267  10.756   6.732  0.00  0.00    +0.000 A 
ATOM     16  C   UNL     1       4.177  10.654   7.804  0.00  0.00    +0.000 A 
ENDBRANCH   9  11
ENDBRANCH   4   9
BRANCH   5  17
ATOM     17  O   UNL     1       6.728  11.095  11.259  0.00  0.00    +0.000 OA
ATOM     18  H   UNL     1       6.612  11.448  12.177  0.00  0.00    +0.000 HD
ENDBRANCH   5  17
TORSDOF 4
ENDMDL
MODEL 5
REMARK VINA RESULT:      -4.4      9.057     10.807
REMARK  Name = bgox31_4_ligand
REMARK  5 active torsions:
REMARK  status: ('A' for Active; 'I' for Inactive)
REMARK    1  A    between atoms: C_1  and  O_2
REMARK    2  A    between atoms: O_2  and  C_3
REMARK    3  A    between atoms: C_6  and  C_7
REMARK    4  A    between atoms: C_7  and  C_9
REMARK    5  A    between atoms: C_15  and  O_16
REMARK                            x       y       z     vdW  Elec       q    Type
REMARK                         _______ _______ _______ _____ _____    ______ ____
ROOT
ATOM      1  C   UNL     1       3.205  10.709   5.898  0.00  0.00    +0.000 A 
ATOM      2  C   UNL     1       3.127  10.906   7.250  0.00  0.00    +0.000 A 
ATOM      3  C   UNL     1       4.289  10.758   8.091  0.00  0.00    +0.000 A 
ATOM      4  C   UNL     1       5.475  10.349   7.466  0.00  0.00    +0.000 A 
ATOM      5  C   UNL     1       5.533  10.176   6.089  0.00  0.00    +0.000 A 
ATOM      6  C   UNL     1       4.399  10.340   5.273  0.00  0.00    +0.000 A 
ENDROOT
BRANCH   1   8
ATOM      7  C   UNL     1       1.584   9.709   4.458  0.00  0.00    +0.000 C 
ATOM      8  O   UNL     1       2.077  10.894   5.139  0.00  0.00    +0.000 OA
ENDBRANCH   1   8
BRANCH   4   9
ATOM      9  C   UNL     1       6.647  10.167   8.340  0.00  0.00    +0.000 C 
ATOM     10  O   UNL     1       7.558  11.057   8.260  0.00  0.00    +0.000 OA
BRANCH   9  11
ATOM     11  C   UNL     1       6.722   9.200   9.437  0.00  0.00    +0.000 A 
ATOM     12  C   UNL     1       6.392   7.872   9.133  0.00  0.00    +0.000 A 
ATOM     13  C   UNL     1       6.363   6.919  10.174  0.00  0.00    +0.000 A 
ATOM     14  C   UNL     1       6.555   7.319  11.460  0.00  0.00    +0.000 A 
ATOM     15  C   UNL     1       6.820   8.637  11.791  0.00  0.00    +0.000 A 
ATOM     16  C   UNL     1       6.879   9.613  10.775  0.00  0.00    +0.000 A 
ENDBRANCH   9  11
ENDBRANCH   4   9
BRANCH   5  17
ATOM     17  O   UNL     1       6.761   9.789   5.526  0.00  0.00    +0.000 OA
ATOM     18  H   UNL     1       7.079   8.856   5.626  0.00  0.00    +0.000 HD
ENDBRANCH   5  17
TORSDOF 4
ENDMDL
MODEL 6
REMARK VINA RESULT:      -4.3      7.543      9.892
REMARK  Name = bgox31_4_ligand
REMARK  5 active torsions:
REMARK  status: ('A' for Active; 'I' for Inactive)
REMARK    1  A    between atoms: C_1  and  O_2
REMARK    2  A    between atoms: O_2  and  C_3
REMARK    3  A    between atoms: C_6  and  C_7
REMARK    4  A    between atoms: C_7  and  C_9
REMARK    5  A    between atoms: C_15  and  O_16
REMARK                            x       y       z     vdW  Elec       q    Type
REMARK                         _______ _______ _______ _____ _____    ______ ____
ROOT
ATOM      1  C   UNL     1       9.756   9.273  10.645  0.00  0.00    +0.000 A 
ATOM      2  C   UNL     1       9.101  10.470  10.755  0.00  0.00    +0.000 A 
ATOM      3  C   UNL     1       7.738  10.614  10.309  0.00  0.00    +0.000 A 
ATOM      4  C   UNL     1       7.145   9.494   9.711  0.00  0.00    +0.000 A 
ATOM      5  C   UNL     1       7.825   8.284   9.630  0.00  0.00    +0.000 A 
ATOM      6  C   UNL     1       9.149   8.147  10.083  0.00  0.00    +0.000 A 
ENDROOT
BRANCH   1   8
ATOM      7  C   UNL     1      11.709   7.915  10.858  0.00  0.00    +0.000 C 
ATOM      8  O   UNL     1      11.043   9.181  11.113  0.00  0.00    +0.000 OA
ENDBRANCH   1   8
BRANCH   4   9
ATOM      9  C   UNL     1       5.763   9.663   9.228  0.00  0.00    +0.000 C 
ATOM     10  O   UNL     1       4.845   9.630  10.113  0.00  0.00    +0.000 OA
BRANCH   9  11
ATOM     11  C   UNL     1       5.404  10.098   7.876  0.00  0.00    +0.000 A 
ATOM     12  C   UNL     1       4.061  10.434   7.656  0.00  0.00    +0.000 A 
ATOM     13  C   UNL     1       3.647  10.774   6.350  0.00  0.00    +0.000 A 
ATOM     14  C   UNL     1       4.525  10.675   5.317  0.00  0.00    +0.000 A 
ATOM     15  C   UNL     1       5.840  10.285   5.502  0.00  0.00    +0.000 A 
ATOM     16  C   UNL     1       6.296   9.959   6.795  0.00  0.00    +0.000 A 
ENDBRANCH   9  11
ENDBRANCH   4   9
BRANCH   5  17
ATOM     17  O   UNL     1       7.161   7.195   9.039  0.00  0.00    +0.000 OA
ATOM     18  H   UNL     1       7.127   6.324   9.508  0.00  0.00    +0.000 HD
ENDBRANCH   5  17
TORSDOF 4
ENDMDL
MODEL 7
REMARK VINA RESULT:      -4.3      1.612      2.516
REMARK  Name = bgox31_4_ligand
REMARK  5 active torsions:
REMARK  status: ('A' for Active; 'I' for Inactive)
REMARK    1  A    between atoms: C_1  and  O_2
REMARK    2  A    between atoms: O_2  and  C_3
REMARK    3  A    between atoms: C_6  and  C_7
REMARK    4  A    between atoms: C_7  and  C_9
REMARK    5  A    between atoms: C_15  and  O_16
REMARK                            x       y       z     vdW  Elec       q    Type
REMARK                         _______ _______ _______ _____ _____    ______ ____
ROOT
ATOM      1  C   UNL     1      12.305   2.513   7.576  0.00  0.00    +0.000 A 
ATOM      2  C   UNL     1      11.529   1.451   7.197  0.00  0.00    +0.000 A 
ATOM      3  C   UNL     1      10.848   0.643   8.178  0.00  0.00    +0.000 A 
ATOM      4  C   UNL     1      11.066   0.962   9.525  0.00  0.00    +0.000 A 
ATOM      5  C   UNL     1      11.842   2.058   9.882  0.00  0.00    +0.000 A 
ATOM      6  C   UNL     1      12.490   2.853   8.918  0.00  0.00    +0.000 A 
ENDROOT
BRANCH   1   8
ATOM      7  C   UNL     1      13.228   2.561   5.374  0.00  0.00    +0.000 C 
ATOM      8  O   UNL     1      12.906   3.269   6.602  0.00  0.00    +0.000 OA
ENDBRANCH   1   8
BRANCH   4   9
ATOM      9  C   UNL     1      10.392   0.107  10.519  0.00  0.00    +0.000 C 
ATOM     10  O   UNL     1      11.149  -0.597  11.266  0.00  0.00    +0.000 OA
BRANCH   9  11
ATOM     11  C   UNL     1       8.971   0.195  10.861  0.00  0.00    +0.000 A 
ATOM     12  C   UNL     1       8.649   0.838  12.065  0.00  0.00    +0.000 A 
ATOM     13  C   UNL     1       7.302   0.870  12.483  0.00  0.00    +0.000 A 
ATOM     14  C   UNL     1       6.358   0.197  11.771  0.00  0.00    +0.000 A 
ATOM     15  C   UNL     1       6.664  -0.498  10.614  0.00  0.00    +0.000 A 
ATOM     16  C   UNL     1       7.995  -0.533  10.153  0.00  0.00    +0.000 A 
ENDBRANCH   9  11
ENDBRANCH   4   9
BRANCH   5  17
ATOM     17  O   UNL     1      11.999   2.334  11.251  0.00  0.00    +0.000 OA
ATOM     18  H   UNL     1      11.389   1.920  11.912  0.00  0.00    +0.000 HD
ENDBRANCH   5  17
TORSDOF 4
ENDMDL
MODEL 8
REMARK VINA RESULT:      -4.2      8.653     10.774
REMARK  Name = bgox31_4_ligand
REMARK  5 active torsions:
REMARK  status: ('A' for Active; 'I' for Inactive)
REMARK    1  A    between atoms: C_1  and  O_2
REMARK    2  A    between atoms: O_2  and  C_3
REMARK    3  A    between atoms: C_6  and  C_7
REMARK    4  A    between atoms: C_7  and  C_9
REMARK    5  A    between atoms: C_15  and  O_16
REMARK                            x       y       z     vdW  Elec       q    Type
REMARK                         _______ _______ _______ _____ _____    ______ ____
ROOT
ATOM      1  C   UNL     1       7.544   8.559  10.728  0.00  0.00    +0.000 A 
ATOM      2  C   UNL     1       6.658   7.875   9.941  0.00  0.00    +0.000 A 
ATOM      3  C   UNL     1       6.211   8.417   8.682  0.00  0.00    +0.000 A 
ATOM      4  C   UNL     1       6.679   9.693   8.339  0.00  0.00    +0.000 A 
ATOM      5  C   UNL     1       7.594  10.358   9.146  0.00  0.00    +0.000 A 
ATOM      6  C   UNL     1       8.040   9.814  10.365  0.00  0.00    +0.000 A 
ENDROOT
BRANCH   1   8
ATOM      7  C   UNL     1       6.909   7.677  12.854  0.00  0.00    +0.000 C 
ATOM      8  O   UNL     1       7.963   7.984  11.901  0.00  0.00    +0.000 OA
ENDBRANCH   1   8
BRANCH   4   9
ATOM      9  C   UNL     1       6.188  10.252   7.067  0.00  0.00    +0.000 C 
ATOM     10  O   UNL     1       7.058  10.429   6.152  0.00  0.00    +0.000 OA
BRANCH   9  11
ATOM     11  C   UNL     1       4.773  10.382   6.710  0.00  0.00    +0.000 A 
ATOM     12  C   UNL     1       4.439  10.175   5.364  0.00  0.00    +0.000 A 
ATOM     13  C   UNL     1       3.105  10.376   4.952  0.00  0.00    +0.000 A 
ATOM     14  C   UNL     1       2.192  10.860   5.836  0.00  0.00    +0.000 A 
ATOM     15  C   UNL     1       2.514  11.132   7.155  0.00  0.00    +0.000 A 
ATOM     16  C   UNL     1       3.832  10.922   7.608  0.00  0.00    +0.000 A 
ENDBRANCH   9  11
ENDBRANCH   4   9
BRANCH   5  17
ATOM     17  O   UNL     1       8.040  11.624   8.729  0.00  0.00    +0.000 OA
ATOM     18  H   UNL     1       7.631  12.056   7.938  0.00  0.00    +0.000 HD
ENDBRANCH   5  17
TORSDOF 4
ENDMDL
MODEL 9
REMARK VINA RESULT:      -4.1      4.005      6.420
REMARK  Name = bgox31_4_ligand
REMARK  5 active torsions:
REMARK  status: ('A' for Active; 'I' for Inactive)
REMARK    1  A    between atoms: C_1  and  O_2
REMARK    2  A    between atoms: O_2  and  C_3
REMARK    3  A    between atoms: C_6  and  C_7
REMARK    4  A    between atoms: C_7  and  C_9
REMARK    5  A    between atoms: C_15  and  O_16
REMARK                            x       y       z     vdW  Elec       q    Type
REMARK                         _______ _______ _______ _____ _____    ______ ____
ROOT
ATOM      1  C   UNL     1       8.432   0.342  10.545  0.00  0.00    +0.000 A 
ATOM      2  C   UNL     1       7.232  -0.141  10.098  0.00  0.00    +0.000 A 
ATOM      3  C   UNL     1       6.161  -0.435  11.017  0.00  0.00    +0.000 A 
ATOM      4  C   UNL     1       6.430  -0.260  12.381  0.00  0.00    +0.000 A 
ATOM      5  C   UNL     1       7.650   0.251  12.808  0.00  0.00    +0.000 A 
ATOM      6  C   UNL     1       8.684   0.553  11.903  0.00  0.00    +0.000 A 
ENDROOT
BRANCH   1   8
ATOM      7  C   UNL     1      10.723   0.908  10.180  0.00  0.00    +0.000 C 
ATOM      8  O   UNL     1       9.407   0.636   9.626  0.00  0.00    +0.000 OA
ENDBRANCH   1   8
BRANCH   4   9
ATOM      9  C   UNL     1       5.340  -0.598  13.313  0.00  0.00    +0.000 C 
ATOM     10  O   UNL     1       5.581  -1.524  14.157  0.00  0.00    +0.000 OA
BRANCH   9  11
ATOM     11  C   UNL     1       4.125   0.200  13.494  0.00  0.00    +0.000 A 
ATOM     12  C   UNL     1       4.200   1.271  14.395  0.00  0.00    +0.000 A 
ATOM     13  C   UNL     1       3.032   2.015  14.671  0.00  0.00    +0.000 A 
ATOM     14  C   UNL     1       1.843   1.625  14.141  0.00  0.00    +0.000 A 
ATOM     15  C   UNL     1       1.734   0.532  13.298  0.00  0.00    +0.000 A 
ATOM     16  C   UNL     1       2.882  -0.222  12.982  0.00  0.00    +0.000 A 
ENDBRANCH   9  11
ENDBRANCH   4   9
BRANCH   5  17
ATOM     17  O   UNL     1       7.843   0.424  14.189  0.00  0.00    +0.000 OA
ATOM     18  H   UNL     1       8.358  -0.247  14.704  0.00  0.00    +0.000 HD
ENDBRANCH   5  17
TORSDOF 4
ENDMDL
