REMARK  Name = ox3_orig_f8_ligand
REMARK  5 active torsions:
REMARK  status: ('A' for Active; 'I' for Inactive)
REMARK    1  A    between atoms: C_1  and  O_2
REMARK    2  A    between atoms: O_2  and  C_3
REMARK    3  A    between atoms: C_6  and  C_7
REMARK    4  A    between atoms: C_7  and  C_9
REMARK    5  A    between atoms: C_15  and  O_16
REMARK                            x       y       z     vdW  Elec       q    Type
REMARK                         _______ _______ _______ _____ _____    ______ ____
ROOT
ATOM      1  C   UNL     1      -3.579   0.356 -10.536  0.00  0.00    +0.000 A 
ATOM      2  C   UNL     1      -4.714   0.825  -9.871  0.00  0.00    +0.000 A 
ATOM      3  C   UNL     1      -4.917   0.509  -8.537  0.00  0.00    +0.000 A 
ATOM      4  C   UNL     1      -3.993  -0.272  -7.849  0.00  0.00    +0.000 A 
ATOM      5  C   UNL     1      -2.868  -0.744  -8.526  0.00  0.00    +0.000 A 
ATOM      6  C   UNL     1      -2.674  -0.425  -9.864  0.00  0.00    +0.000 A 
ENDROOT
BRANCH   1   8
ATOM      7  C   UNL     1      -4.294   1.353 -12.632  0.00  0.00    +0.000 C 
ATOM      8  O   UNL     1      -3.329   0.642 -11.856  0.00  0.00    +0.000 OA
ENDBRANCH   1   8
BRANCH   4   9
ATOM      9  C   UNL     1      -4.205  -0.631  -6.406  0.00  0.00    +0.000 C 
ATOM     10  O   UNL     1      -3.428  -1.397  -5.888  0.00  0.00    +0.000 OA
BRANCH   9  11
ATOM     11  C   UNL     1      -5.346  -0.111  -5.613  0.00  0.00    +0.000 A 
ATOM     12  C   UNL     1      -5.655   1.242  -5.589  0.00  0.00    +0.000 A 
ATOM     13  C   UNL     1      -6.702   1.702  -4.812  0.00  0.00    +0.000 A 
ATOM     14  C   UNL     1      -7.487   0.824  -4.091  0.00  0.00    +0.000 A 
ATOM     15  C   UNL     1      -7.178  -0.525  -4.096  0.00  0.00    +0.000 A 
ATOM     16  C   UNL     1      -6.094  -0.997  -4.839  0.00  0.00    +0.000 A 
ENDBRANCH   9  11
ENDBRANCH   4   9
BRANCH   5  17
ATOM     17  O   UNL     1      -1.970  -1.529  -7.867  0.00  0.00    +0.000 OA
ATOM     18  H   UNL     1      -1.169  -1.868  -8.339  0.00  0.00    +0.000 HD
ENDBRANCH   5  17
TORSDOF 4
