REMARK  Name = /Users/cafierom/python_mac/peptidebuilder/runs/oxybenzone/dock/ox3_orig_f8_o3cof/ox3_orig_f8_o3cof_protein.pdb
REMARK                            x       y       z     vdW  Elec       q    Type
REMARK                         _______ _______ _______ _____ _____    ______ ____
ATOM      1  N   ASP A   1       7.899   3.141  -0.473  0.00  0.00    +0.000 NA
ATOM      2  CA  ASP A   1       7.115   4.296   0.006  0.00  0.00    +0.000 C 
ATOM      3  C   ASP A   1       5.982   3.830   0.920  0.00  0.00    +0.000 C 
ATOM      4  O   ASP A   1       5.377   2.798   0.671  0.00  0.00    +0.000 OA
ATOM      5  CB  ASP A   1       6.553   5.095  -1.164  0.00  0.00    +0.000 C 
ATOM      6  CG  ASP A   1       7.646   5.616  -2.071  0.00  0.00    +0.000 C 
ATOM      7  OD1 ASP A   1       8.803   5.741  -1.623  0.00  0.00    +0.000 OA
ATOM      8  OD2 ASP A   1       7.347   5.908  -3.248  0.00  0.00    +0.000 OA
ATOM      9  N   GLY A   2       5.709   4.601   1.986  0.00  0.00    +0.000 N 
ATOM     10  CA  GLY A   2       4.792   4.241   3.072  0.00  0.00    +0.000 C 
ATOM     11  C   GLY A   2       3.374   3.881   2.665  0.00  0.00    +0.000 C 
ATOM     12  O   GLY A   2       3.072   3.646   1.500  0.00  0.00    +0.000 OA
ATOM     13  N   GLY A   3       2.481   3.846   3.680  0.00  0.00    +0.000 N 
ATOM     14  CA  GLY A   3       1.085   3.498   3.499  0.00  0.00    +0.000 C 
ATOM     15  C   GLY A   3       0.689   2.309   4.355  0.00  0.00    +0.000 C 
ATOM     16  O   GLY A   3       1.541   1.577   4.854  0.00  0.00    +0.000 OA
ATOM     17  N   GLU A   4      -0.628   2.122   4.516  0.00  0.00    +0.000 N 
ATOM     18  CA  GLU A   4      -1.164   0.995   5.269  0.00  0.00    +0.000 C 
ATOM     19  C   GLU A   4      -2.396   0.431   4.570  0.00  0.00    +0.000 C 
ATOM     20  O   GLU A   4      -3.185   1.177   3.999  0.00  0.00    +0.000 OA
ATOM     21  CB  GLU A   4      -1.521   1.410   6.707  0.00  0.00    +0.000 C 
ATOM     22  CG  GLU A   4      -2.624   2.455   6.796  0.00  0.00    +0.000 C 
ATOM     23  CD  GLU A   4      -3.033   2.748   8.226  0.00  0.00    +0.000 C 
ATOM     24  OE1 GLU A   4      -2.785   1.916   9.114  0.00  0.00    +0.000 OA
ATOM     25  OE2 GLU A   4      -3.611   3.819   8.465  0.00  0.00    +0.000 OA
ATOM     26  N   GLY A   5      -2.562  -0.897   4.624  0.00  0.00    +0.000 N 
ATOM     27  CA  GLY A   5      -3.698  -1.565   4.022  0.00  0.00    +0.000 C 
ATOM     28  C   GLY A   5      -3.708  -1.431   2.504  0.00  0.00    +0.000 C 
ATOM     29  O   GLY A   5      -2.725  -1.033   1.889  0.00  0.00    +0.000 OA
ATOM     30  N   GLY A   6      -4.852  -1.773   1.908  0.00  0.00    +0.000 N 
ATOM     31  CA  GLY A   6      -5.016  -1.679   0.469  0.00  0.00    +0.000 C 
ATOM     32  C   GLY A   6      -4.010  -2.532  -0.283  0.00  0.00    +0.000 C 
ATOM     33  O   GLY A   6      -3.490  -3.511   0.237  0.00  0.00    +0.000 OA
ATOM     34  N   ILE A   7      -3.761  -2.135  -1.532  0.00  0.00    +0.000 N 
ATOM     35  CA  ILE A   7      -2.806  -2.830  -2.386  0.00  0.00    +0.000 C 
ATOM     36  C   ILE A   7      -1.793  -1.824  -2.916  0.00  0.00    +0.000 C 
ATOM     37  O   ILE A   7      -2.178  -0.802  -3.470  0.00  0.00    +0.000 OA
ATOM     38  CB  ILE A   7      -3.532  -3.529  -3.550  0.00  0.00    +0.000 C 
ATOM     39  CG1 ILE A   7      -4.469  -4.615  -3.015  0.00  0.00    +0.000 C 
ATOM     40  CG2 ILE A   7      -2.535  -4.128  -4.532  0.00  0.00    +0.000 C 
ATOM     41  CD1 ILE A   7      -5.392  -5.192  -4.071  0.00  0.00    +0.000 C 
ATOM     42  N   GLY A   8      -0.486  -2.109  -2.732  0.00  0.00    +0.000 N 
ATOM     43  CA  GLY A   8       0.583  -1.302  -3.302  0.00  0.00    +0.000 C 
ATOM     44  C   GLY A   8       1.416  -0.557  -2.278  0.00  0.00    +0.000 C 
ATOM     45  O   GLY A   8       1.175  -0.615  -1.077  0.00  0.00    +0.000 OA
ATOM     46  N   GLY A   9       2.414   0.149  -2.787  0.00  0.00    +0.000 N 
ATOM     47  CA  GLY A   9       3.312   0.961  -1.987  0.00  0.00    +0.000 C 
ATOM     48  C   GLY A   9       4.098   0.169  -0.949  0.00  0.00    +0.000 C 
ATOM     49  O   GLY A   9       3.933  -1.032  -0.796  0.00  0.00    +0.000 OA
ATOM     50  N   GLY A  10       4.948   0.885  -0.223  0.00  0.00    +0.000 N 
ATOM     51  CA  GLY A  10       5.716   0.303   0.862  0.00  0.00    +0.000 C 
ATOM     52  C   GLY A  10       6.868  -0.574   0.401  0.00  0.00    +0.000 C 
ATOM     53  O   GLY A  10       6.980  -0.947  -0.762  0.00  0.00    +0.000 OA
ATOM     54  N   SER A  11       7.725  -0.910   1.365  0.00  0.00    +0.000 N 
ATOM     55  CA  SER A  11       8.829  -1.811   1.128  0.00  0.00    +0.000 C 
ATOM     56  C   SER A  11       8.289  -3.229   0.977  0.00  0.00    +0.000 C 
ATOM     57  O   SER A  11       7.509  -3.688   1.800  0.00  0.00    +0.000 OA
ATOM     58  CB  SER A  11       9.820  -1.737   2.292  0.00  0.00    +0.000 C 
ATOM     59  OG  SER A  11      10.931  -2.589   2.085  0.00  0.00    +0.000 OA
ATOM     60  N   GLY A  12       8.685  -3.907  -0.094  0.00  0.00    +0.000 N 
ATOM     61  CA  GLY A  12       8.218  -5.263  -0.330  0.00  0.00    +0.000 C 
ATOM     62  C   GLY A  12       6.832  -5.349  -0.952  0.00  0.00    +0.000 C 
ATOM     63  O   GLY A  12       6.311  -6.447  -1.131  0.00  0.00    +0.000 OA
ATOM     64  N   GLY A  13       6.216  -4.196  -1.262  0.00  0.00    +0.000 N 
ATOM     65  CA  GLY A  13       4.926  -4.186  -1.949  0.00  0.00    +0.000 C 
ATOM     66  C   GLY A  13       3.704  -4.211  -1.053  0.00  0.00    +0.000 C 
ATOM     67  O   GLY A  13       2.632  -4.620  -1.495  0.00  0.00    +0.000 OA
ATOM     68  N   TRP A  14       3.839  -3.790   0.215  0.00  0.00    +0.000 N 
ATOM     69  CA  TRP A  14       2.694  -3.671   1.118  0.00  0.00    +0.000 C 
ATOM     70  C   TRP A  14       2.373  -2.201   1.365  0.00  0.00    +0.000 C 
ATOM     71  O   TRP A  14       3.265  -1.361   1.352  0.00  0.00    +0.000 OA
ATOM     72  CB  TRP A  14       2.970  -4.358   2.457  0.00  0.00    +0.000 C 
ATOM     73  CG  TRP A  14       3.123  -5.837   2.331  0.00  0.00    +0.000 C 
ATOM     74  CD1 TRP A  14       2.129  -6.755   2.269  0.00  0.00    +0.000 C 
ATOM     75  CD2 TRP A  14       4.357  -6.564   2.226  0.00  0.00    +0.000 A 
ATOM     76  NE1 TRP A  14       2.657  -8.009   2.134  0.00  0.00    +0.000 NA
ATOM     77  CE2 TRP A  14       4.027  -7.925   2.103  0.00  0.00    +0.000 A 
ATOM     78  CE3 TRP A  14       5.701  -6.199   2.229  0.00  0.00    +0.000 A 
ATOM     79  CZ2 TRP A  14       4.995  -8.920   1.983  0.00  0.00    +0.000 A 
ATOM     80  CZ3 TRP A  14       6.655  -7.191   2.113  0.00  0.00    +0.000 A 
ATOM     81  CH2 TRP A  14       6.304  -8.544   1.991  0.00  0.00    +0.000 A 
ATOM     82  N   GLY A  15       1.073  -1.899   1.608  0.00  0.00    +0.000 N 
ATOM     83  CA  GLY A  15       0.650  -0.544   1.920  0.00  0.00    +0.000 C 
ATOM     84  C   GLY A  15      -0.455  -0.054   1.016  0.00  0.00    +0.000 C 
ATOM     85  O   GLY A  15      -1.150  -0.834   0.375  0.00  0.00    +0.000 OA
ATOM     86  N   ASP A  16      -0.626   1.271   0.982  0.00  0.00    +0.000 N 
ATOM     87  CA  ASP A  16      -1.704   1.922   0.267  0.00  0.00    +0.000 C 
ATOM     88  C   ASP A  16      -1.218   2.472  -1.073  0.00  0.00    +0.000 C 
ATOM     89  O   ASP A  16      -0.014   2.549  -1.319  0.00  0.00    +0.000 OA
ATOM     90  CB  ASP A  16      -2.268   3.040   1.146  0.00  0.00    +0.000 C 
ATOM     91  CG  ASP A  16      -3.641   3.522   0.710  0.00  0.00    +0.000 C 
ATOM     92  OD1 ASP A  16      -4.259   2.883  -0.157  0.00  0.00    +0.000 OA
ATOM     93  OD2 ASP A  16      -4.085   4.555   1.246  0.00  0.00    +0.000 OA
ATOM     94  N   GLY A  17      -2.156   2.862  -1.933  0.00  0.00    +0.000 N 
ATOM     95  CA  GLY A  17      -1.833   3.465  -3.216  0.00  0.00    +0.000 C 
ATOM     96  C   GLY A  17      -1.613   2.437  -4.308  0.00  0.00    +0.000 C 
ATOM     97  O   GLY A  17      -2.119   1.320  -4.240  0.00  0.00    +0.000 OA
ATOM     98  N   PHE A  18      -0.850   2.840  -5.332  0.00  0.00    +0.000 N 
ATOM     99  CA  PHE A  18      -0.631   2.011  -6.507  0.00  0.00    +0.000 C 
ATOM    100  C   PHE A  18       0.587   1.112  -6.364  0.00  0.00    +0.000 C 
ATOM    101  O   PHE A  18       1.510   1.407  -5.616  0.00  0.00    +0.000 OA
ATOM    102  CB  PHE A  18      -0.486   2.905  -7.742  0.00  0.00    +0.000 C 
ATOM    103  CG  PHE A  18      -1.706   3.737  -8.021  0.00  0.00    +0.000 A 
ATOM    104  CD1 PHE A  18      -2.843   3.167  -8.566  0.00  0.00    +0.000 A 
ATOM    105  CD2 PHE A  18      -1.721   5.087  -7.720  0.00  0.00    +0.000 A 
ATOM    106  CE1 PHE A  18      -3.965   3.931  -8.812  0.00  0.00    +0.000 A 
ATOM    107  CE2 PHE A  18      -2.842   5.852  -7.971  0.00  0.00    +0.000 A 
ATOM    108  CZ  PHE A  18      -3.968   5.273  -8.515  0.00  0.00    +0.000 A 
ATOM    109  N   GLY A  19       0.586  -0.015  -7.096  0.00  0.00    +0.000 N 
ATOM    110  CA  GLY A  19       1.680  -0.973  -7.090  0.00  0.00    +0.000 C 
ATOM    111  C   GLY A  19       1.211  -2.338  -6.627  0.00  0.00    +0.000 C 
ATOM    112  O   GLY A  19       0.020  -2.571  -6.447  0.00  0.00    +0.000 OA
ATOM    113  N   GLY A  20       2.171  -3.257  -6.425  0.00  0.00    +0.000 N 
ATOM    114  CA  GLY A  20       1.847  -4.598  -5.968  0.00  0.00    +0.000 C 
ATOM    115  C   GLY A  20       1.840  -4.682  -4.451  0.00  0.00    +0.000 C 
ATOM    116  O   GLY A  20       2.401  -3.826  -3.779  0.00  0.00    +0.000 OA
ATOM    117  N   GLY A  21       1.210  -5.748  -3.898  0.00  0.00    +0.000 N 
ATOM    118  CA  GLY A  21       1.194  -5.977  -2.465  0.00  0.00    +0.000 C 
ATOM    119  C   GLY A  21      -0.201  -5.903  -1.866  0.00  0.00    +0.000 C 
ATOM    120  O   GLY A  21      -1.137  -5.444  -2.502  0.00  0.00    +0.000 OA
ATOM    121  N   LEU A  22      -0.325  -6.392  -0.621  0.00  0.00    +0.000 N 
ATOM    122  CA  LEU A  22      -1.596  -6.439   0.096  0.00  0.00    +0.000 C 
ATOM    123  C   LEU A  22      -1.413  -6.068   1.562  0.00  0.00    +0.000 C 
ATOM    124  O   LEU A  22      -0.591  -6.670   2.249  0.00  0.00    +0.000 OA
ATOM    125  CB  LEU A  22      -2.191  -7.849   0.038  0.00  0.00    +0.000 C 
ATOM    126  CG  LEU A  22      -3.118  -8.194  -1.124  0.00  0.00    +0.000 C 
ATOM    127  CD1 LEU A  22      -4.338  -7.301  -1.137  0.00  0.00    +0.000 C 
ATOM    128  CD2 LEU A  22      -3.533  -9.636  -1.006  0.00  0.00    +0.000 C 
ATOM    129  N   GLY A  23      -2.216  -5.100   2.067  0.00  0.00    +0.000 N 
ATOM    130  CA  GLY A  23      -2.260  -4.749   3.476  0.00  0.00    +0.000 C 
ATOM    131  C   GLY A  23      -0.900  -4.430   4.071  0.00  0.00    +0.000 C 
ATOM    132  O   GLY A  23       0.077  -4.205   3.360  0.00  0.00    +0.000 OA
ATOM    133  N   GLY A  24      -0.850  -4.411   5.415  0.00  0.00    +0.000 N 
ATOM    134  CA  GLY A  24       0.385  -4.146   6.129  0.00  0.00    +0.000 C 
ATOM    135  C   GLY A  24       0.869  -2.720   5.960  0.00  0.00    +0.000 C 
ATOM    136  O   GLY A  24       0.128  -1.841   5.530  0.00  0.00    +0.000 OA
ATOM    137  N   TYR A  25       2.147  -2.509   6.307  0.00  0.00    +0.000 N 
ATOM    138  CA  TYR A  25       2.797  -1.199   6.247  0.00  0.00    +0.000 C 
ATOM    139  C   TYR A  25       4.057  -1.269   5.401  0.00  0.00    +0.000 C 
ATOM    140  O   TYR A  25       4.532  -2.353   5.069  0.00  0.00    +0.000 OA
ATOM    141  CB  TYR A  25       3.164  -0.726   7.653  0.00  0.00    +0.000 C 
ATOM    142  CG  TYR A  25       1.978  -0.398   8.520  0.00  0.00    +0.000 A 
ATOM    143  CD1 TYR A  25       1.536   0.909   8.650  0.00  0.00    +0.000 A 
ATOM    144  CD2 TYR A  25       1.308  -1.393   9.223  0.00  0.00    +0.000 A 
ATOM    145  CE1 TYR A  25       0.455   1.216   9.451  0.00  0.00    +0.000 A 
ATOM    146  CE2 TYR A  25       0.223  -1.095  10.021  0.00  0.00    +0.000 A 
ATOM    147  CZ  TYR A  25      -0.200   0.215  10.133  0.00  0.00    +0.000 A 
ATOM    148  OH  TYR A  25      -1.278   0.524  10.927  0.00  0.00    +0.000 OA
ATOM    149  N   GLY A  26       4.618  -0.099   5.061  0.00  0.00    +0.000 N 
ATOM    150  CA  GLY A  26       5.832  -0.052   4.264  0.00  0.00    +0.000 C 
ATOM    151  C   GLY A  26       6.557   1.269   4.386  0.00  0.00    +0.000 C 
ATOM    152  O   GLY A  26       6.187   2.119   5.193  0.00  0.00    +0.000 OA
ATOM    153  N   SER A  27       7.622   1.434   3.567  0.00  0.00    +0.000 N 
ATOM    154  CA  SER A  27       8.438   2.638   3.537  0.00  0.00    +0.000 C 
ATOM    155  C   SER A  27       8.292   3.364   2.212  0.00  0.00    +0.000 C 
ATOM    156  O   SER A  27       8.936   4.400   2.012  0.00  0.00    +0.000 OA
ATOM    157  CB  SER A  27       9.919   2.294   3.766  0.00  0.00    +0.000 C 
ATOM    158  OG  SER A  27      10.086   1.586   4.977  0.00  0.00    +0.000 OA
ATOM    159  H   ASP A   1       8.650   3.468  -1.081  0.00  0.00    +0.000 HD
ATOM    160  H   ASP A   1       7.291   2.510  -0.994  0.00  0.00    +0.000 HD
ATOM    161  H   ASP A   1       8.988   5.511  -0.734  0.00  0.00    +0.000 HD
ATOM    162  H   GLY A   2       6.159   5.475   2.042  0.00  0.00    +0.000 HD
ATOM    163  H   GLY A   3       2.794   4.068   4.587  0.00  0.00    +0.000 HD
ATOM    164  H   GLU A   4      -1.254   2.766   4.113  0.00  0.00    +0.000 HD
ATOM    165  H   GLU A   4      -2.347   1.117   8.898  0.00  0.00    +0.000 HD
ATOM    166  H   GLY A   5      -1.886  -1.440   5.091  0.00  0.00    +0.000 HD
ATOM    167  H   GLY A   6      -5.602  -2.097   2.457  0.00  0.00    +0.000 HD
ATOM    168  H   ILE A   7      -4.236  -1.349  -1.887  0.00  0.00    +0.000 HD
ATOM    169  H   GLY A   8      -0.246  -2.895  -2.190  0.00  0.00    +0.000 HD
ATOM    170  H   GLY A   9       2.554   0.121  -3.761  0.00  0.00    +0.000 HD
ATOM    171  H   GLY A  10       5.061   1.841  -0.427  0.00  0.00    +0.000 HD
ATOM    172  H   SER A  11       7.602  -0.533   2.266  0.00  0.00    +0.000 HD
ATOM    173  H   SER A  11      10.626  -3.507   2.018  0.00  0.00    +0.000 HD
ATOM    174  H   GLY A  12       9.302  -3.486  -0.736  0.00  0.00    +0.000 HD
ATOM    175  H   GLY A  13       6.642  -3.341  -1.022  0.00  0.00    +0.000 HD
ATOM    176  H   TRP A  14       4.735  -3.554   0.547  0.00  0.00    +0.000 HD
ATOM    177  H   GLY A  15       0.399  -2.616   1.572  0.00  0.00    +0.000 HD
ATOM    178  H   ASP A  16       0.016   1.836   1.470  0.00  0.00    +0.000 HD
ATOM    179  H   ASP A  16      -3.578   5.000   1.896  0.00  0.00    +0.000 HD
ATOM    180  H   GLY A  17      -3.102   2.738  -1.692  0.00  0.00    +0.000 HD
ATOM    181  H   PHE A  18      -0.423   3.726  -5.288  0.00  0.00    +0.000 HD
ATOM    182  H   GLY A  19      -0.195  -0.202  -7.665  0.00  0.00    +0.000 HD
ATOM    183  H   GLY A  20       3.111  -3.017  -6.590  0.00  0.00    +0.000 HD
ATOM    184  H   GLY A  21       0.749  -6.387  -4.488  0.00  0.00    +0.000 HD
ATOM    185  H   LEU A  22       0.480  -6.735  -0.170  0.00  0.00    +0.000 HD
ATOM    186  H   GLY A  23      -2.801  -4.608   1.446  0.00  0.00    +0.000 HD
ATOM    187  H   GLY A  24      -1.673  -4.581   5.928  0.00  0.00    +0.000 HD
ATOM    188  H   TYR A  25       2.677  -3.278   6.619  0.00  0.00    +0.000 HD
ATOM    189  H   TYR A  25      -1.565   1.413  11.003  0.00  0.00    +0.000 HD
ATOM    190  H   GLY A  26       4.200   0.742   5.356  0.00  0.00    +0.000 HD
ATOM    191  H   SER A  27       7.858   0.698   2.957  0.00  0.00    +0.000 HD
ATOM    192  H   SER A  27       9.782   2.134   5.717  0.00  0.00    +0.000 HD
TER 
