MODEL 1
REMARK VINA RESULT:      -4.6      0.000      0.000
REMARK  Name = ox3_orig_f8_ligand
REMARK  5 active torsions:
REMARK  status: ('A' for Active; 'I' for Inactive)
REMARK    1  A    between atoms: C_1  and  O_2
REMARK    2  A    between atoms: O_2  and  C_3
REMARK    3  A    between atoms: C_6  and  C_7
REMARK    4  A    between atoms: C_7  and  C_9
REMARK    5  A    between atoms: C_15  and  O_16
REMARK                            x       y       z     vdW  Elec       q    Type
REMARK                         _______ _______ _______ _____ _____    ______ ____
ROOT
ATOM      1  C   UNL     1      -6.362   3.581  -4.165  0.00  0.00    +0.000 A 
ATOM      2  C   UNL     1      -7.051   2.847  -5.133  0.00  0.00    +0.000 A 
ATOM      3  C   UNL     1      -6.892   1.472  -5.204  0.00  0.00    +0.000 A 
ATOM      4  C   UNL     1      -6.051   0.812  -4.312  0.00  0.00    +0.000 A 
ATOM      5  C   UNL     1      -5.360   1.557  -3.356  0.00  0.00    +0.000 A 
ATOM      6  C   UNL     1      -5.522   2.935  -3.294  0.00  0.00    +0.000 A 
ENDROOT
BRANCH   1   8
ATOM      7  C   UNL     1      -5.485   5.701  -3.368  0.00  0.00    +0.000 C 
ATOM      8  O   UNL     1      -6.485   4.944  -4.050  0.00  0.00    +0.000 OA
ENDBRANCH   1   8
BRANCH   4   9
ATOM      9  C   UNL     1      -5.862  -0.676  -4.384  0.00  0.00    +0.000 C 
ATOM     10  O   UNL     1      -6.114  -1.332  -3.402  0.00  0.00    +0.000 OA
BRANCH   9  11
ATOM     11  C   UNL     1      -5.346  -1.358  -5.597  0.00  0.00    +0.000 A 
ATOM     12  C   UNL     1      -6.015  -2.434  -6.163  0.00  0.00    +0.000 A 
ATOM     13  C   UNL     1      -5.491  -3.072  -7.272  0.00  0.00    +0.000 A 
ATOM     14  C   UNL     1      -4.327  -2.622  -7.864  0.00  0.00    +0.000 A 
ATOM     15  C   UNL     1      -3.644  -1.560  -7.298  0.00  0.00    +0.000 A 
ATOM     16  C   UNL     1      -4.138  -0.936  -6.150  0.00  0.00    +0.000 A 
ENDBRANCH   9  11
ENDBRANCH   4   9
BRANCH   5  17
ATOM     17  O   UNL     1      -4.517   0.922  -2.495  0.00  0.00    +0.000 OA
ATOM     18  H   UNL     1      -3.540   0.946  -2.651  0.00  0.00    +0.000 HD
ENDBRANCH   5  17
TORSDOF 4
ENDMDL
MODEL 2
REMARK VINA RESULT:      -4.4      3.051      6.121
REMARK  Name = ox3_orig_f8_ligand
REMARK  5 active torsions:
REMARK  status: ('A' for Active; 'I' for Inactive)
REMARK    1  A    between atoms: C_1  and  O_2
REMARK    2  A    between atoms: O_2  and  C_3
REMARK    3  A    between atoms: C_6  and  C_7
REMARK    4  A    between atoms: C_7  and  C_9
REMARK    5  A    between atoms: C_15  and  O_16
REMARK                            x       y       z     vdW  Elec       q    Type
REMARK                         _______ _______ _______ _____ _____    ______ ____
ROOT
ATOM      1  C   UNL     1      -3.180  -0.448  -9.817  0.00  0.00    +0.000 A 
ATOM      2  C   UNL     1      -4.536  -0.132  -9.715  0.00  0.00    +0.000 A 
ATOM      3  C   UNL     1      -5.144  -0.075  -8.471  0.00  0.00    +0.000 A 
ATOM      4  C   UNL     1      -4.410  -0.327  -7.315  0.00  0.00    +0.000 A 
ATOM      5  C   UNL     1      -3.058  -0.652  -7.429  0.00  0.00    +0.000 A 
ATOM      6  C   UNL     1      -2.458  -0.710  -8.681  0.00  0.00    +0.000 A 
ENDROOT
BRANCH   1   8
ATOM      7  C   UNL     1      -2.393  -1.767 -11.698  0.00  0.00    +0.000 C 
ATOM      8  O   UNL     1      -2.528  -0.516 -11.024  0.00  0.00    +0.000 OA
ENDBRANCH   1   8
BRANCH   4   9
ATOM      9  C   UNL     1      -5.058  -0.278  -5.961  0.00  0.00    +0.000 C 
ATOM     10  O   UNL     1      -5.463  -1.312  -5.485  0.00  0.00    +0.000 OA
BRANCH   9  11
ATOM     11  C   UNL     1      -5.249   0.988  -5.212  0.00  0.00    +0.000 A 
ATOM     12  C   UNL     1      -5.046   2.223  -5.812  0.00  0.00    +0.000 A 
ATOM     13  C   UNL     1      -5.197   3.385  -5.079  0.00  0.00    +0.000 A 
ATOM     14  C   UNL     1      -5.599   3.342  -3.759  0.00  0.00    +0.000 A 
ATOM     15  C   UNL     1      -5.789   2.115  -3.146  0.00  0.00    +0.000 A 
ATOM     16  C   UNL     1      -5.594   0.932  -3.862  0.00  0.00    +0.000 A 
ENDBRANCH   9  11
ENDBRANCH   4   9
BRANCH   5  17
ATOM     17  O   UNL     1      -2.338  -0.924  -6.305  0.00  0.00    +0.000 OA
ATOM     18  H   UNL     1      -2.459  -0.370  -5.494  0.00  0.00    +0.000 HD
ENDBRANCH   5  17
TORSDOF 4
ENDMDL
MODEL 3
REMARK VINA RESULT:      -4.3      2.206      3.224
REMARK  Name = ox3_orig_f8_ligand
REMARK  5 active torsions:
REMARK  status: ('A' for Active; 'I' for Inactive)
REMARK    1  A    between atoms: C_1  and  O_2
REMARK    2  A    between atoms: O_2  and  C_3
REMARK    3  A    between atoms: C_6  and  C_7
REMARK    4  A    between atoms: C_7  and  C_9
REMARK    5  A    between atoms: C_15  and  O_16
REMARK                            x       y       z     vdW  Elec       q    Type
REMARK                         _______ _______ _______ _____ _____    ______ ____
ROOT
ATOM      1  C   UNL     1      -7.891   0.440  -1.819  0.00  0.00    +0.000 A 
ATOM      2  C   UNL     1      -8.443   0.456  -3.102  0.00  0.00    +0.000 A 
ATOM      3  C   UNL     1      -7.621   0.603  -4.209  0.00  0.00    +0.000 A 
ATOM      4  C   UNL     1      -6.244   0.731  -4.053  0.00  0.00    +0.000 A 
ATOM      5  C   UNL     1      -5.705   0.725  -2.766  0.00  0.00    +0.000 A 
ATOM      6  C   UNL     1      -6.536   0.580  -1.662  0.00  0.00    +0.000 A 
ENDROOT
BRANCH   1   8
ATOM      7  C   UNL     1      -8.105   0.572   0.596  0.00  0.00    +0.000 C 
ATOM      8  O   UNL     1      -8.659   0.295  -0.690  0.00  0.00    +0.000 OA
ENDBRANCH   1   8
BRANCH   4   9
ATOM      9  C   UNL     1      -5.343   0.901  -5.243  0.00  0.00    +0.000 C 
ATOM     10  O   UNL     1      -5.055   2.023  -5.585  0.00  0.00    +0.000 OA
BRANCH   9  11
ATOM     11  C   UNL     1      -4.829  -0.249  -6.026  0.00  0.00    +0.000 A 
ATOM     12  C   UNL     1      -3.678  -0.146  -6.794  0.00  0.00    +0.000 A 
ATOM     13  C   UNL     1      -3.243  -1.224  -7.543  0.00  0.00    +0.000 A 
ATOM     14  C   UNL     1      -3.912  -2.431  -7.500  0.00  0.00    +0.000 A 
ATOM     15  C   UNL     1      -5.070  -2.540  -6.750  0.00  0.00    +0.000 A 
ATOM     16  C   UNL     1      -5.546  -1.444  -6.026  0.00  0.00    +0.000 A 
ENDBRANCH   9  11
ENDBRANCH   4   9
BRANCH   5  17
ATOM     17  O   UNL     1      -4.361   0.873  -2.603  0.00  0.00    +0.000 OA
ATOM     18  H   UNL     1      -3.901   0.423  -1.851  0.00  0.00    +0.000 HD
ENDBRANCH   5  17
TORSDOF 4
ENDMDL
MODEL 4
REMARK VINA RESULT:      -4.2      2.705      4.355
REMARK  Name = ox3_orig_f8_ligand
REMARK  5 active torsions:
REMARK  status: ('A' for Active; 'I' for Inactive)
REMARK    1  A    between atoms: C_1  and  O_2
REMARK    2  A    between atoms: O_2  and  C_3
REMARK    3  A    between atoms: C_6  and  C_7
REMARK    4  A    between atoms: C_7  and  C_9
REMARK    5  A    between atoms: C_15  and  O_16
REMARK                            x       y       z     vdW  Elec       q    Type
REMARK                         _______ _______ _______ _____ _____    ______ ____
ROOT
ATOM      1  C   UNL     1      -7.486  -2.171  -3.722  0.00  0.00    +0.000 A 
ATOM      2  C   UNL     1      -7.723  -2.066  -5.094  0.00  0.00    +0.000 A 
ATOM      3  C   UNL     1      -6.973  -1.191  -5.863  0.00  0.00    +0.000 A 
ATOM      4  C   UNL     1      -5.977  -0.414  -5.279  0.00  0.00    +0.000 A 
ATOM      5  C   UNL     1      -5.756  -0.519  -3.905  0.00  0.00    +0.000 A 
ATOM      6  C   UNL     1      -6.514  -1.396  -3.141  0.00  0.00    +0.000 A 
ENDROOT
BRANCH   1   8
ATOM      7  C   UNL     1      -7.760  -3.285  -1.581  0.00  0.00    +0.000 C 
ATOM      8  O   UNL     1      -8.198  -3.024  -2.915  0.00  0.00    +0.000 OA
ENDBRANCH   1   8
BRANCH   4   9
ATOM      9  C   UNL     1      -5.163   0.546  -6.098  0.00  0.00    +0.000 C 
ATOM     10  O   UNL     1      -5.121   1.701  -5.749  0.00  0.00    +0.000 OA
BRANCH   9  11
ATOM     11  C   UNL     1      -4.446   0.136  -7.331  0.00  0.00    +0.000 A 
ATOM     12  C   UNL     1      -5.010   0.306  -8.587  0.00  0.00    +0.000 A 
ATOM     13  C   UNL     1      -4.334  -0.119  -9.716  0.00  0.00    +0.000 A 
ATOM     14  C   UNL     1      -3.071  -0.670  -9.618  0.00  0.00    +0.000 A 
ATOM     15  C   UNL     1      -2.506  -0.857  -8.369  0.00  0.00    +0.000 A 
ATOM     16  C   UNL     1      -3.199  -0.476  -7.218  0.00  0.00    +0.000 A 
ENDBRANCH   9  11
ENDBRANCH   4   9
BRANCH   5  17
ATOM     17  O   UNL     1      -4.799   0.255  -3.320  0.00  0.00    +0.000 OA
ATOM     18  H   UNL     1      -4.616   0.168  -2.351  0.00  0.00    +0.000 HD
ENDBRANCH   5  17
TORSDOF 4
ENDMDL
MODEL 5
REMARK VINA RESULT:      -4.1      8.573     10.312
REMARK  Name = ox3_orig_f8_ligand
REMARK  5 active torsions:
REMARK  status: ('A' for Active; 'I' for Inactive)
REMARK    1  A    between atoms: C_1  and  O_2
REMARK    2  A    between atoms: O_2  and  C_3
REMARK    3  A    between atoms: C_6  and  C_7
REMARK    4  A    between atoms: C_7  and  C_9
REMARK    5  A    between atoms: C_15  and  O_16
REMARK                            x       y       z     vdW  Elec       q    Type
REMARK                         _______ _______ _______ _____ _____    ______ ____
ROOT
ATOM      1  C   UNL     1       1.730   6.524  -5.862  0.00  0.00    +0.000 A 
ATOM      2  C   UNL     1       1.850   7.561  -4.935  0.00  0.00    +0.000 A 
ATOM      3  C   UNL     1       1.915   7.278  -3.580  0.00  0.00    +0.000 A 
ATOM      4  C   UNL     1       1.866   5.961  -3.132  0.00  0.00    +0.000 A 
ATOM      5  C   UNL     1       1.735   4.933  -4.066  0.00  0.00    +0.000 A 
ATOM      6  C   UNL     1       1.668   5.226  -5.422  0.00  0.00    +0.000 A 
ENDROOT
BRANCH   1   8
ATOM      7  C   UNL     1       1.997   5.709  -8.134  0.00  0.00    +0.000 C 
ATOM      8  O   UNL     1       1.663   6.750  -7.215  0.00  0.00    +0.000 OA
ENDBRANCH   1   8
BRANCH   4   9
ATOM      9  C   UNL     1       1.925   5.639  -1.666  0.00  0.00    +0.000 C 
ATOM     10  O   UNL     1       2.888   5.039  -1.252  0.00  0.00    +0.000 OA
BRANCH   9  11
ATOM     11  C   UNL     1       0.835   5.997  -0.725  0.00  0.00    +0.000 A 
ATOM     12  C   UNL     1      -0.483   6.096  -1.148  0.00  0.00    +0.000 A 
ATOM     13  C   UNL     1      -1.472   6.466  -0.256  0.00  0.00    +0.000 A 
ATOM     14  C   UNL     1      -1.177   6.693   1.074  0.00  0.00    +0.000 A 
ATOM     15  C   UNL     1       0.136   6.612   1.502  0.00  0.00    +0.000 A 
ATOM     16  C   UNL     1       1.152   6.285   0.601  0.00  0.00    +0.000 A 
ENDBRANCH   9  11
ENDBRANCH   4   9
BRANCH   5  17
ATOM     17  O   UNL     1       1.663   3.642  -3.636  0.00  0.00    +0.000 OA
ATOM     18  H   UNL     1       2.312   2.972  -3.968  0.00  0.00    +0.000 HD
ENDBRANCH   5  17
TORSDOF 4
ENDMDL
MODEL 6
REMARK VINA RESULT:      -4.0      1.516      2.275
REMARK  Name = ox3_orig_f8_ligand
REMARK  5 active torsions:
REMARK  status: ('A' for Active; 'I' for Inactive)
REMARK    1  A    between atoms: C_1  and  O_2
REMARK    2  A    between atoms: O_2  and  C_3
REMARK    3  A    between atoms: C_6  and  C_7
REMARK    4  A    between atoms: C_7  and  C_9
REMARK    5  A    between atoms: C_15  and  O_16
REMARK                            x       y       z     vdW  Elec       q    Type
REMARK                         _______ _______ _______ _____ _____    ______ ____
ROOT
ATOM      1  C   UNL     1      -6.181   5.024  -4.359  0.00  0.00    +0.000 A 
ATOM      2  C   UNL     1      -5.461   4.232  -5.255  0.00  0.00    +0.000 A 
ATOM      3  C   UNL     1      -5.184   2.909  -4.946  0.00  0.00    +0.000 A 
ATOM      4  C   UNL     1      -5.624   2.359  -3.745  0.00  0.00    +0.000 A 
ATOM      5  C   UNL     1      -6.333   3.163  -2.852  0.00  0.00    +0.000 A 
ATOM      6  C   UNL     1      -6.604   4.488  -3.169  0.00  0.00    +0.000 A 
ENDROOT
BRANCH   1   8
ATOM      7  C   UNL     1      -5.620   7.127  -5.437  0.00  0.00    +0.000 C 
ATOM      8  O   UNL     1      -6.484   6.338  -4.618  0.00  0.00    +0.000 OA
ENDBRANCH   1   8
BRANCH   4   9
ATOM      9  C   UNL     1      -5.322   0.931  -3.392  0.00  0.00    +0.000 C 
ATOM     10  O   UNL     1      -4.665   0.714  -2.402  0.00  0.00    +0.000 OA
BRANCH   9  11
ATOM     11  C   UNL     1      -5.769  -0.210  -4.228  0.00  0.00    +0.000 A 
ATOM     12  C   UNL     1      -6.907  -0.939  -3.912  0.00  0.00    +0.000 A 
ATOM     13  C   UNL     1      -7.278  -2.020  -4.690  0.00  0.00    +0.000 A 
ATOM     14  C   UNL     1      -6.558  -2.360  -5.818  0.00  0.00    +0.000 A 
ATOM     15  C   UNL     1      -5.414  -1.649  -6.134  0.00  0.00    +0.000 A 
ATOM     16  C   UNL     1      -5.001  -0.585  -5.330  0.00  0.00    +0.000 A 
ENDBRANCH   9  11
ENDBRANCH   4   9
BRANCH   5  17
ATOM     17  O   UNL     1      -6.747   2.640  -1.664  0.00  0.00    +0.000 OA
ATOM     18  H   UNL     1      -6.573   1.688  -1.454  0.00  0.00    +0.000 HD
ENDBRANCH   5  17
TORSDOF 4
ENDMDL
MODEL 7
REMARK VINA RESULT:      -4.0      3.615      5.449
REMARK  Name = ox3_orig_f8_ligand
REMARK  5 active torsions:
REMARK  status: ('A' for Active; 'I' for Inactive)
REMARK    1  A    between atoms: C_1  and  O_2
REMARK    2  A    between atoms: O_2  and  C_3
REMARK    3  A    between atoms: C_6  and  C_7
REMARK    4  A    between atoms: C_7  and  C_9
REMARK    5  A    between atoms: C_15  and  O_16
REMARK                            x       y       z     vdW  Elec       q    Type
REMARK                         _______ _______ _______ _____ _____    ______ ____
ROOT
ATOM      1  C   UNL     1      -4.765  -0.604  -6.048  0.00  0.00    +0.000 A 
ATOM      2  C   UNL     1      -5.527  -1.767  -6.175  0.00  0.00    +0.000 A 
ATOM      3  C   UNL     1      -5.080  -2.806  -6.976  0.00  0.00    +0.000 A 
ATOM      4  C   UNL     1      -3.869  -2.702  -7.654  0.00  0.00    +0.000 A 
ATOM      5  C   UNL     1      -3.120  -1.532  -7.528  0.00  0.00    +0.000 A 
ATOM      6  C   UNL     1      -3.578  -0.494  -6.726  0.00  0.00    +0.000 A 
ENDROOT
BRANCH   1   8
ATOM      7  C   UNL     1      -5.532   0.241  -3.904  0.00  0.00    +0.000 C 
ATOM      8  O   UNL     1      -5.161   0.454  -5.267  0.00  0.00    +0.000 OA
ENDBRANCH   1   8
BRANCH   4   9
ATOM      9  C   UNL     1      -3.376  -3.816  -8.533  0.00  0.00    +0.000 C 
ATOM     10  O   UNL     1      -3.413  -3.658  -9.729  0.00  0.00    +0.000 OA
BRANCH   9  11
ATOM     11  C   UNL     1      -2.885  -5.106  -7.988  0.00  0.00    +0.000 A 
ATOM     12  C   UNL     1      -3.759  -6.061  -7.488  0.00  0.00    +0.000 A 
ATOM     13  C   UNL     1      -3.270  -7.239  -6.953  0.00  0.00    +0.000 A 
ATOM     14  C   UNL     1      -1.916  -7.507  -6.953  0.00  0.00    +0.000 A 
ATOM     15  C   UNL     1      -1.035  -6.555  -7.435  0.00  0.00    +0.000 A 
ATOM     16  C   UNL     1      -1.512  -5.341  -7.935  0.00  0.00    +0.000 A 
ENDBRANCH   9  11
ENDBRANCH   4   9
BRANCH   5  17
ATOM     17  O   UNL     1      -1.945  -1.412  -8.207  0.00  0.00    +0.000 OA
ATOM     18  H   UNL     1      -1.088  -1.605  -7.751  0.00  0.00    +0.000 HD
ENDBRANCH   5  17
TORSDOF 4
ENDMDL
MODEL 8
REMARK VINA RESULT:      -4.0      1.801      2.870
REMARK  Name = ox3_orig_f8_ligand
REMARK  5 active torsions:
REMARK  status: ('A' for Active; 'I' for Inactive)
REMARK    1  A    between atoms: C_1  and  O_2
REMARK    2  A    between atoms: O_2  and  C_3
REMARK    3  A    between atoms: C_6  and  C_7
REMARK    4  A    between atoms: C_7  and  C_9
REMARK    5  A    between atoms: C_15  and  O_16
REMARK                            x       y       z     vdW  Elec       q    Type
REMARK                         _______ _______ _______ _____ _____    ______ ____
ROOT
ATOM      1  C   UNL     1      -6.324   3.678  -4.130  0.00  0.00    +0.000 A 
ATOM      2  C   UNL     1      -6.981   3.017  -5.170  0.00  0.00    +0.000 A 
ATOM      3  C   UNL     1      -6.817   1.651  -5.338  0.00  0.00    +0.000 A 
ATOM      4  C   UNL     1      -6.003   0.927  -4.471  0.00  0.00    +0.000 A 
ATOM      5  C   UNL     1      -5.343   1.600  -3.442  0.00  0.00    +0.000 A 
ATOM      6  C   UNL     1      -5.511   2.969  -3.283  0.00  0.00    +0.000 A 
ENDROOT
BRANCH   1   8
ATOM      7  C   UNL     1      -5.421   5.754  -3.252  0.00  0.00    +0.000 C 
ATOM      8  O   UNL     1      -6.455   5.029  -3.918  0.00  0.00    +0.000 OA
ENDBRANCH   1   8
BRANCH   4   9
ATOM      9  C   UNL     1      -5.807  -0.552  -4.647  0.00  0.00    +0.000 C 
ATOM     10  O   UNL     1      -4.829  -0.931  -5.245  0.00  0.00    +0.000 OA
BRANCH   9  11
ATOM     11  C   UNL     1      -6.784  -1.551  -4.148  0.00  0.00    +0.000 A 
ATOM     12  C   UNL     1      -6.940  -1.796  -2.790  0.00  0.00    +0.000 A 
ATOM     13  C   UNL     1      -7.832  -2.759  -2.357  0.00  0.00    +0.000 A 
ATOM     14  C   UNL     1      -8.616  -3.454  -3.256  0.00  0.00    +0.000 A 
ATOM     15  C   UNL     1      -8.457  -3.228  -4.612  0.00  0.00    +0.000 A 
ATOM     16  C   UNL     1      -7.526  -2.292  -5.066  0.00  0.00    +0.000 A 
ENDBRANCH   9  11
ENDBRANCH   4   9
BRANCH   5  17
ATOM     17  O   UNL     1      -4.526   0.903  -2.603  0.00  0.00    +0.000 OA
ATOM     18  H   UNL     1      -4.585  -0.084  -2.560  0.00  0.00    +0.000 HD
ENDBRANCH   5  17
TORSDOF 4
ENDMDL
MODEL 9
REMARK VINA RESULT:      -4.0      2.340      6.152
REMARK  Name = ox3_orig_f8_ligand
REMARK  5 active torsions:
REMARK  status: ('A' for Active; 'I' for Inactive)
REMARK    1  A    between atoms: C_1  and  O_2
REMARK    2  A    between atoms: O_2  and  C_3
REMARK    3  A    between atoms: C_6  and  C_7
REMARK    4  A    between atoms: C_7  and  C_9
REMARK    5  A    between atoms: C_15  and  O_16
REMARK                            x       y       z     vdW  Elec       q    Type
REMARK                         _______ _______ _______ _____ _____    ______ ____
ROOT
ATOM      1  C   UNL     1      -3.320  -2.344  -8.189  0.00  0.00    +0.000 A 
ATOM      2  C   UNL     1      -2.807  -1.062  -7.980  0.00  0.00    +0.000 A 
ATOM      3  C   UNL     1      -3.409  -0.215  -7.062  0.00  0.00    +0.000 A 
ATOM      4  C   UNL     1      -4.522  -0.635  -6.339  0.00  0.00    +0.000 A 
ATOM      5  C   UNL     1      -5.032  -1.914  -6.564  0.00  0.00    +0.000 A 
ATOM      6  C   UNL     1      -4.425  -2.755  -7.489  0.00  0.00    +0.000 A 
ENDROOT
BRANCH   1   8
ATOM      7  C   UNL     1      -1.423  -3.026  -9.543  0.00  0.00    +0.000 C 
ATOM      8  O   UNL     1      -2.760  -3.222  -9.084  0.00  0.00    +0.000 OA
ENDBRANCH   1   8
BRANCH   4   9
ATOM      9  C   UNL     1      -5.190   0.275  -5.349  0.00  0.00    +0.000 C 
ATOM     10  O   UNL     1      -5.311  -0.110  -4.210  0.00  0.00    +0.000 OA
BRANCH   9  11
ATOM     11  C   UNL     1      -5.735   1.602  -5.725  0.00  0.00    +0.000 A 
ATOM     12  C   UNL     1      -6.718   1.734  -6.697  0.00  0.00    +0.000 A 
ATOM     13  C   UNL     1      -7.180   2.987  -7.052  0.00  0.00    +0.000 A 
ATOM     14  C   UNL     1      -6.714   4.120  -6.415  0.00  0.00    +0.000 A 
ATOM     15  C   UNL     1      -5.723   4.002  -5.456  0.00  0.00    +0.000 A 
ATOM     16  C   UNL     1      -5.214   2.746  -5.121  0.00  0.00    +0.000 A 
ENDBRANCH   9  11
ENDBRANCH   4   9
BRANCH   5  17
ATOM     17  O   UNL     1      -6.136  -2.326  -5.879  0.00  0.00    +0.000 OA
ATOM     18  H   UNL     1      -6.999  -2.432  -6.350  0.00  0.00    +0.000 HD
ENDBRANCH   5  17
TORSDOF 4
ENDMDL
