REMARK  Name = bg33_2_ligand
REMARK  12 active torsions:
REMARK  status: ('A' for Active; 'I' for Inactive)
REMARK    1  A    between atoms: C_1  and  C_2
REMARK    2  A    between atoms: C_2  and  C_3
REMARK    3  A    between atoms: C_3  and  C_4
REMARK    4  A    between atoms: C_4  and  C_5
REMARK    5  A    between atoms: C_5  and  C_6
REMARK    6  A    between atoms: C_5  and  O_8
REMARK    7  A    between atoms: C_6  and  C_7
REMARK    8  A    between atoms: O_8  and  C_9
REMARK    9  A    between atoms: C_9  and  C_11
REMARK   10  A    between atoms: C_12  and  C_13
REMARK   11  A    between atoms: C_16  and  O_17
REMARK   12  A    between atoms: O_17  and  C_18
REMARK                            x       y       z     vdW  Elec       q    Type
REMARK                         _______ _______ _______ _____ _____    ______ ____
ROOT
ATOM      1  C   UNL     1       5.572  -3.525  -0.991  0.00  0.00    +0.000 C 
ATOM      2  O   UNL     1       5.966  -4.609  -1.360  0.00  0.00    +0.000 OA
ENDROOT
BRANCH   1   3
ATOM      3  C   UNL     1       4.751  -3.431   0.261  0.00  0.00    +0.000 C 
ATOM      4  C   UNL     1       4.460  -2.258   0.909  0.00  0.00    +0.000 C 
BRANCH   4   5
ATOM      5  C   UNL     1       3.505  -2.253   2.078  0.00  0.00    +0.000 A 
ATOM      6  C   UNL     1       2.698  -3.345   2.326  0.00  0.00    +0.000 A 
ATOM      7  C   UNL     1       1.818  -3.281   3.403  0.00  0.00    +0.000 A 
ATOM      8  C   UNL     1       1.716  -2.172   4.232  0.00  0.00    +0.000 A 
ATOM      9  C   UNL     1       2.517  -1.094   3.943  0.00  0.00    +0.000 A 
ATOM     10  C   UNL     1       3.420  -1.126   2.872  0.00  0.00    +0.000 A 
BRANCH   8  11
ATOM     11  O   UNL     1       0.801  -2.131   5.279  0.00  0.00    +0.000 OA
ATOM     12  C   UNL     1       0.828  -3.261   6.161  0.00  0.00    +0.000 C 
ENDBRANCH   8  11
ENDBRANCH   4   5
ENDBRANCH   1   3
BRANCH   1  13
ATOM     13  O   UNL     1       5.850  -2.383  -1.796  0.00  0.00    +0.000 OA
BRANCH  13  14
ATOM     14  C   UNL     1       6.565  -2.584  -3.057  0.00  0.00    +0.000 C 
BRANCH  14  15
ATOM     15  C   UNL     1       7.204  -1.325  -3.608  0.00  0.00    +0.000 C 
ATOM     16  C   UNL     1       8.410  -1.695  -4.558  0.00  0.00    +0.000 C 
ENDBRANCH  14  15
BRANCH  14  17
ATOM     17  C   UNL     1       5.650  -3.148  -4.106  0.00  0.00    +0.000 C 
BRANCH  17  18
ATOM     18  C   UNL     1       4.568  -2.131  -4.507  0.00  0.00    +0.000 C 
BRANCH  18  20
ATOM     19  C   UNL     1       2.740  -1.494  -6.082  0.00  0.00    +0.000 C 
ATOM     20  C   UNL     1       3.781  -2.567  -5.716  0.00  0.00    +0.000 C 
ENDBRANCH  18  20
ENDBRANCH  17  18
ENDBRANCH  14  17
ENDBRANCH  13  14
ENDBRANCH   1  13
TORSDOF 9
