MODEL 1
REMARK VINA RESULT:      -2.9      0.000      0.000
REMARK  Name = bg33_2_ligand
REMARK  12 active torsions:
REMARK  status: ('A' for Active; 'I' for Inactive)
REMARK    1  A    between atoms: C_1  and  C_2
REMARK    2  A    between atoms: C_2  and  C_3
REMARK    3  A    between atoms: C_3  and  C_4
REMARK    4  A    between atoms: C_4  and  C_5
REMARK    5  A    between atoms: C_5  and  C_6
REMARK    6  A    between atoms: C_5  and  O_8
REMARK    7  A    between atoms: C_6  and  C_7
REMARK    8  A    between atoms: O_8  and  C_9
REMARK    9  A    between atoms: C_9  and  C_11
REMARK   10  A    between atoms: C_12  and  C_13
REMARK   11  A    between atoms: C_16  and  O_17
REMARK   12  A    between atoms: O_17  and  C_18
REMARK                            x       y       z     vdW  Elec       q    Type
REMARK                         _______ _______ _______ _____ _____    ______ ____
ROOT
ATOM      1  C   UNL     1       1.649  -5.543   4.603  0.00  0.00    +0.000 C 
ATOM      2  O   UNL     1       2.500  -6.388   4.768  0.00  0.00    +0.000 OA
ENDROOT
BRANCH   1   3
ATOM      3  C   UNL     1       0.255  -5.967   4.243  0.00  0.00    +0.000 C 
ATOM      4  C   UNL     1      -0.723  -6.262   5.157  0.00  0.00    +0.000 C 
BRANCH   4   5
ATOM      5  C   UNL     1      -2.134  -6.538   4.697  0.00  0.00    +0.000 A 
ATOM      6  C   UNL     1      -2.369  -7.085   3.452  0.00  0.00    +0.000 A 
ATOM      7  C   UNL     1      -3.689  -7.298   3.065  0.00  0.00    +0.000 A 
ATOM      8  C   UNL     1      -4.774  -6.983   3.873  0.00  0.00    +0.000 A 
ATOM      9  C   UNL     1      -4.506  -6.419   5.096  0.00  0.00    +0.000 A 
ATOM     10  C   UNL     1      -3.189  -6.197   5.521  0.00  0.00    +0.000 A 
BRANCH   8  11
ATOM     11  O   UNL     1      -6.082  -7.179   3.439  0.00  0.00    +0.000 OA
ATOM     12  C   UNL     1      -6.290  -8.342   2.627  0.00  0.00    +0.000 C 
ENDBRANCH   8  11
ENDBRANCH   4   5
ENDBRANCH   1   3
BRANCH   1  13
ATOM     13  O   UNL     1       2.017  -4.170   4.694  0.00  0.00    +0.000 OA
BRANCH  13  14
ATOM     14  C   UNL     1       1.176  -3.182   4.016  0.00  0.00    +0.000 C 
BRANCH  14  15
ATOM     15  C   UNL     1       1.762  -2.665   2.717  0.00  0.00    +0.000 C 
ATOM     16  C   UNL     1       1.448  -3.667   1.538  0.00  0.00    +0.000 C 
ENDBRANCH  14  15
BRANCH  14  17
ATOM     17  C   UNL     1       0.902  -2.009   4.912  0.00  0.00    +0.000 C 
BRANCH  17  18
ATOM     18  C   UNL     1      -0.607  -1.733   5.024  0.00  0.00    +0.000 C 
BRANCH  18  20
ATOM     19  C   UNL     1      -2.825  -2.433   5.931  0.00  0.00    +0.000 C 
ATOM     20  C   UNL     1      -1.313  -2.723   5.915  0.00  0.00    +0.000 C 
ENDBRANCH  18  20
ENDBRANCH  17  18
ENDBRANCH  14  17
ENDBRANCH  13  14
ENDBRANCH   1  13
TORSDOF 9
ENDMDL
MODEL 2
REMARK VINA RESULT:      -2.9      5.354     10.321
REMARK  Name = bg33_2_ligand
REMARK  12 active torsions:
REMARK  status: ('A' for Active; 'I' for Inactive)
REMARK    1  A    between atoms: C_1  and  C_2
REMARK    2  A    between atoms: C_2  and  C_3
REMARK    3  A    between atoms: C_3  and  C_4
REMARK    4  A    between atoms: C_4  and  C_5
REMARK    5  A    between atoms: C_5  and  C_6
REMARK    6  A    between atoms: C_5  and  O_8
REMARK    7  A    between atoms: C_6  and  C_7
REMARK    8  A    between atoms: O_8  and  C_9
REMARK    9  A    between atoms: C_9  and  C_11
REMARK   10  A    between atoms: C_12  and  C_13
REMARK   11  A    between atoms: C_16  and  O_17
REMARK   12  A    between atoms: O_17  and  C_18
REMARK                            x       y       z     vdW  Elec       q    Type
REMARK                         _______ _______ _______ _____ _____    ______ ____
ROOT
ATOM      1  C   UNL     1       2.979  -1.024   6.082  0.00  0.00    +0.000 C 
ATOM      2  O   UNL     1       2.669  -0.817   7.235  0.00  0.00    +0.000 OA
ENDROOT
BRANCH   1   3
ATOM      3  C   UNL     1       3.878  -0.050   5.380  0.00  0.00    +0.000 C 
ATOM      4  C   UNL     1       3.437   1.039   4.672  0.00  0.00    +0.000 C 
BRANCH   4   5
ATOM      5  C   UNL     1       4.425   2.040   4.125  0.00  0.00    +0.000 A 
ATOM      6  C   UNL     1       3.984   3.166   3.460  0.00  0.00    +0.000 A 
ATOM      7  C   UNL     1       4.936   4.047   2.954  0.00  0.00    +0.000 A 
ATOM      8  C   UNL     1       6.303   3.841   3.087  0.00  0.00    +0.000 A 
ATOM      9  C   UNL     1       6.708   2.699   3.734  0.00  0.00    +0.000 A 
ATOM     10  C   UNL     1       5.777   1.795   4.263  0.00  0.00    +0.000 A 
BRANCH   8  11
ATOM     11  O   UNL     1       7.226   4.726   2.539  0.00  0.00    +0.000 OA
ATOM     12  C   UNL     1       6.879   6.114   2.640  0.00  0.00    +0.000 C 
ENDBRANCH   8  11
ENDBRANCH   4   5
ENDBRANCH   1   3
BRANCH   1  13
ATOM     13  O   UNL     1       2.426  -2.154   5.414  0.00  0.00    +0.000 OA
BRANCH  13  14
ATOM     14  C   UNL     1       1.362  -1.925   4.435  0.00  0.00    +0.000 C 
BRANCH  14  15
ATOM     15  C   UNL     1      -0.014  -2.341   4.915  0.00  0.00    +0.000 C 
ATOM     16  C   UNL     1      -0.803  -1.088   5.464  0.00  0.00    +0.000 C 
ENDBRANCH  14  15
BRANCH  14  17
ATOM     17  C   UNL     1       1.653  -2.648   3.152  0.00  0.00    +0.000 C 
BRANCH  17  18
ATOM     18  C   UNL     1       2.639  -1.855   2.277  0.00  0.00    +0.000 C 
BRANCH  18  20
ATOM     19  C   UNL     1       5.073  -1.336   2.099  0.00  0.00    +0.000 C 
ATOM     20  C   UNL     1       4.025  -2.448   2.280  0.00  0.00    +0.000 C 
ENDBRANCH  18  20
ENDBRANCH  17  18
ENDBRANCH  14  17
ENDBRANCH  13  14
ENDBRANCH   1  13
TORSDOF 9
ENDMDL
MODEL 3
REMARK VINA RESULT:      -2.9      6.588      9.719
REMARK  Name = bg33_2_ligand
REMARK  12 active torsions:
REMARK  status: ('A' for Active; 'I' for Inactive)
REMARK    1  A    between atoms: C_1  and  C_2
REMARK    2  A    between atoms: C_2  and  C_3
REMARK    3  A    between atoms: C_3  and  C_4
REMARK    4  A    between atoms: C_4  and  C_5
REMARK    5  A    between atoms: C_5  and  C_6
REMARK    6  A    between atoms: C_5  and  O_8
REMARK    7  A    between atoms: C_6  and  C_7
REMARK    8  A    between atoms: O_8  and  C_9
REMARK    9  A    between atoms: C_9  and  C_11
REMARK   10  A    between atoms: C_12  and  C_13
REMARK   11  A    between atoms: C_16  and  O_17
REMARK   12  A    between atoms: O_17  and  C_18
REMARK                            x       y       z     vdW  Elec       q    Type
REMARK                         _______ _______ _______ _____ _____    ______ ____
ROOT
ATOM      1  C   UNL     1       8.273  -2.055   0.479  0.00  0.00    +0.000 C 
ATOM      2  O   UNL     1       9.182  -2.249   1.254  0.00  0.00    +0.000 OA
ENDROOT
BRANCH   1   3
ATOM      3  C   UNL     1       6.869  -1.974   1.001  0.00  0.00    +0.000 C 
ATOM      4  C   UNL     1       5.804  -2.652   0.466  0.00  0.00    +0.000 C 
BRANCH   4   5
ATOM      5  C   UNL     1       4.460  -2.619   1.152  0.00  0.00    +0.000 A 
ATOM      6  C   UNL     1       4.098  -1.537   1.928  0.00  0.00    +0.000 A 
ATOM      7  C   UNL     1       2.857  -1.566   2.558  0.00  0.00    +0.000 A 
ATOM      8  C   UNL     1       1.974  -2.631   2.443  0.00  0.00    +0.000 A 
ATOM      9  C   UNL     1       2.376  -3.702   1.683  0.00  0.00    +0.000 A 
ATOM     10  C   UNL     1       3.615  -3.704   1.027  0.00  0.00    +0.000 A 
BRANCH   8  11
ATOM     11  O   UNL     1       0.756  -2.640   3.115  0.00  0.00    +0.000 OA
ATOM     12  C   UNL     1       0.809  -2.220   4.485  0.00  0.00    +0.000 C 
ENDBRANCH   8  11
ENDBRANCH   4   5
ENDBRANCH   1   3
BRANCH   1  13
ATOM     13  O   UNL     1       8.563  -1.973  -0.913  0.00  0.00    +0.000 OA
BRANCH  13  14
ATOM     14  C   UNL     1       8.774  -0.648  -1.498  0.00  0.00    +0.000 C 
BRANCH  14  15
ATOM     15  C   UNL     1       7.974  -0.400  -2.762  0.00  0.00    +0.000 C 
ATOM     16  C   UNL     1       6.780  -1.429  -2.863  0.00  0.00    +0.000 C 
ENDBRANCH  14  15
BRANCH  14  17
ATOM     17  C   UNL     1      10.227  -0.425  -1.807  0.00  0.00    +0.000 C 
BRANCH  17  18
ATOM     18  C   UNL     1      10.905   0.423  -0.718  0.00  0.00    +0.000 C 
BRANCH  18  20
ATOM     19  C   UNL     1      10.439   2.503   0.579  0.00  0.00    +0.000 C 
ATOM     20  C   UNL     1       9.912   1.112   0.182  0.00  0.00    +0.000 C 
ENDBRANCH  18  20
ENDBRANCH  17  18
ENDBRANCH  14  17
ENDBRANCH  13  14
ENDBRANCH   1  13
TORSDOF 9
ENDMDL
MODEL 4
REMARK VINA RESULT:      -2.9      4.139      5.818
REMARK  Name = bg33_2_ligand
REMARK  12 active torsions:
REMARK  status: ('A' for Active; 'I' for Inactive)
REMARK    1  A    between atoms: C_1  and  C_2
REMARK    2  A    between atoms: C_2  and  C_3
REMARK    3  A    between atoms: C_3  and  C_4
REMARK    4  A    between atoms: C_4  and  C_5
REMARK    5  A    between atoms: C_5  and  C_6
REMARK    6  A    between atoms: C_5  and  O_8
REMARK    7  A    between atoms: C_6  and  C_7
REMARK    8  A    between atoms: O_8  and  C_9
REMARK    9  A    between atoms: C_9  and  C_11
REMARK   10  A    between atoms: C_12  and  C_13
REMARK   11  A    between atoms: C_16  and  O_17
REMARK   12  A    between atoms: O_17  and  C_18
REMARK                            x       y       z     vdW  Elec       q    Type
REMARK                         _______ _______ _______ _____ _____    ______ ____
ROOT
ATOM      1  C   UNL     1       1.516  -2.580   3.351  0.00  0.00    +0.000 C 
ATOM      2  O   UNL     1       1.388  -2.966   2.210  0.00  0.00    +0.000 OA
ENDROOT
BRANCH   1   3
ATOM      3  C   UNL     1       0.301  -2.452   4.222  0.00  0.00    +0.000 C 
ATOM      4  C   UNL     1       0.073  -1.411   5.084  0.00  0.00    +0.000 C 
BRANCH   4   5
ATOM      5  C   UNL     1      -1.246  -1.299   5.808  0.00  0.00    +0.000 A 
ATOM      6  C   UNL     1      -2.125  -2.363   5.828  0.00  0.00    +0.000 A 
ATOM      7  C   UNL     1      -3.340  -2.201   6.489  0.00  0.00    +0.000 A 
ATOM      8  C   UNL     1      -3.703  -1.021   7.125  0.00  0.00    +0.000 A 
ATOM      9  C   UNL     1      -2.815   0.025   7.066  0.00  0.00    +0.000 A 
ATOM     10  C   UNL     1      -1.581  -0.105   6.416  0.00  0.00    +0.000 A 
BRANCH   8  11
ATOM     11  O   UNL     1      -4.939  -0.884   7.748  0.00  0.00    +0.000 OA
ATOM     12  C   UNL     1      -5.902  -1.898   7.430  0.00  0.00    +0.000 C 
ENDBRANCH   8  11
ENDBRANCH   4   5
ENDBRANCH   1   3
BRANCH   1  13
ATOM     13  O   UNL     1       2.811  -2.200   3.807  0.00  0.00    +0.000 OA
BRANCH  13  14
ATOM     14  C   UNL     1       3.445  -1.033   3.192  0.00  0.00    +0.000 C 
BRANCH  14  15
ATOM     15  C   UNL     1       4.818  -1.313   2.614  0.00  0.00    +0.000 C 
ATOM     16  C   UNL     1       4.697  -1.737   1.098  0.00  0.00    +0.000 C 
ENDBRANCH  14  15
BRANCH  14  17
ATOM     17  C   UNL     1       3.568   0.090   4.181  0.00  0.00    +0.000 C 
BRANCH  17  18
ATOM     18  C   UNL     1       4.552   1.164   3.685  0.00  0.00    +0.000 C 
BRANCH  18  20
ATOM     19  C   UNL     1       4.935   3.552   3.073  0.00  0.00    +0.000 C 
ATOM     20  C   UNL     1       3.967   2.552   3.729  0.00  0.00    +0.000 C 
ENDBRANCH  18  20
ENDBRANCH  17  18
ENDBRANCH  14  17
ENDBRANCH  13  14
ENDBRANCH   1  13
TORSDOF 9
ENDMDL
MODEL 5
REMARK VINA RESULT:      -2.9      2.702      7.355
REMARK  Name = bg33_2_ligand
REMARK  12 active torsions:
REMARK  status: ('A' for Active; 'I' for Inactive)
REMARK    1  A    between atoms: C_1  and  C_2
REMARK    2  A    between atoms: C_2  and  C_3
REMARK    3  A    between atoms: C_3  and  C_4
REMARK    4  A    between atoms: C_4  and  C_5
REMARK    5  A    between atoms: C_5  and  C_6
REMARK    6  A    between atoms: C_5  and  O_8
REMARK    7  A    between atoms: C_6  and  C_7
REMARK    8  A    between atoms: O_8  and  C_9
REMARK    9  A    between atoms: C_9  and  C_11
REMARK   10  A    between atoms: C_12  and  C_13
REMARK   11  A    between atoms: C_16  and  O_17
REMARK   12  A    between atoms: O_17  and  C_18
REMARK                            x       y       z     vdW  Elec       q    Type
REMARK                         _______ _______ _______ _____ _____    ______ ____
ROOT
ATOM      1  C   UNL     1      -2.544  -1.879   5.883  0.00  0.00    +0.000 C 
ATOM      2  O   UNL     1      -3.107  -1.003   6.500  0.00  0.00    +0.000 OA
ENDROOT
BRANCH   1   3
ATOM      3  C   UNL     1      -1.237  -1.579   5.211  0.00  0.00    +0.000 C 
ATOM      4  C   UNL     1      -0.197  -2.467   5.108  0.00  0.00    +0.000 C 
BRANCH   4   5
ATOM      5  C   UNL     1       1.020  -2.120   4.286  0.00  0.00    +0.000 A 
ATOM      6  C   UNL     1       1.188  -2.655   3.024  0.00  0.00    +0.000 A 
ATOM      7  C   UNL     1       2.339  -2.322   2.316  0.00  0.00    +0.000 A 
ATOM      8  C   UNL     1       3.321  -1.481   2.822  0.00  0.00    +0.000 A 
ATOM      9  C   UNL     1       3.134  -0.984   4.089  0.00  0.00    +0.000 A 
ATOM     10  C   UNL     1       1.984  -1.292   4.828  0.00  0.00    +0.000 A 
BRANCH   8  11
ATOM     11  O   UNL     1       4.475  -1.196   2.099  0.00  0.00    +0.000 OA
ATOM     12  C   UNL     1       4.754  -2.090   1.013  0.00  0.00    +0.000 C 
ENDBRANCH   8  11
ENDBRANCH   4   5
ENDBRANCH   1   3
BRANCH   1  13
ATOM     13  O   UNL     1      -3.176  -3.151   5.764  0.00  0.00    +0.000 OA
BRANCH  13  14
ATOM     14  C   UNL     1      -3.406  -3.924   6.985  0.00  0.00    +0.000 C 
BRANCH  14  15
ATOM     15  C   UNL     1      -2.180  -4.062   7.865  0.00  0.00    +0.000 C 
ATOM     16  C   UNL     1      -2.445  -3.406   9.277  0.00  0.00    +0.000 C 
ENDBRANCH  14  15
BRANCH  14  17
ATOM     17  C   UNL     1      -3.911  -5.301   6.658  0.00  0.00    +0.000 C 
BRANCH  17  18
ATOM     18  C   UNL     1      -3.527  -5.709   5.225  0.00  0.00    +0.000 C 
BRANCH  18  20
ATOM     19  C   UNL     1      -1.081  -6.052   4.869  0.00  0.00    +0.000 C 
ATOM     20  C   UNL     1      -2.423  -6.734   5.190  0.00  0.00    +0.000 C 
ENDBRANCH  18  20
ENDBRANCH  17  18
ENDBRANCH  14  17
ENDBRANCH  13  14
ENDBRANCH   1  13
TORSDOF 9
ENDMDL
MODEL 6
REMARK VINA RESULT:      -2.9      5.920     10.569
REMARK  Name = bg33_2_ligand
REMARK  12 active torsions:
REMARK  status: ('A' for Active; 'I' for Inactive)
REMARK    1  A    between atoms: C_1  and  C_2
REMARK    2  A    between atoms: C_2  and  C_3
REMARK    3  A    between atoms: C_3  and  C_4
REMARK    4  A    between atoms: C_4  and  C_5
REMARK    5  A    between atoms: C_5  and  C_6
REMARK    6  A    between atoms: C_5  and  O_8
REMARK    7  A    between atoms: C_6  and  C_7
REMARK    8  A    between atoms: O_8  and  C_9
REMARK    9  A    between atoms: C_9  and  C_11
REMARK   10  A    between atoms: C_12  and  C_13
REMARK   11  A    between atoms: C_16  and  O_17
REMARK   12  A    between atoms: O_17  and  C_18
REMARK                            x       y       z     vdW  Elec       q    Type
REMARK                         _______ _______ _______ _____ _____    ______ ____
ROOT
ATOM      1  C   UNL     1       3.310  -0.381   5.035  0.00  0.00    +0.000 C 
ATOM      2  O   UNL     1       4.028  -1.005   5.784  0.00  0.00    +0.000 OA
ENDROOT
BRANCH   1   3
ATOM      3  C   UNL     1       3.575   1.078   4.813  0.00  0.00    +0.000 C 
ATOM      4  C   UNL     1       4.244   1.587   3.729  0.00  0.00    +0.000 C 
BRANCH   4   5
ATOM      5  C   UNL     1       4.332   3.080   3.523  0.00  0.00    +0.000 A 
ATOM      6  C   UNL     1       3.287   3.900   3.899  0.00  0.00    +0.000 A 
ATOM      7  C   UNL     1       3.408   5.267   3.666  0.00  0.00    +0.000 A 
ATOM      8  C   UNL     1       4.526   5.838   3.073  0.00  0.00    +0.000 A 
ATOM      9  C   UNL     1       5.537   4.990   2.690  0.00  0.00    +0.000 A 
ATOM     10  C   UNL     1       5.453   3.610   2.916  0.00  0.00    +0.000 A 
BRANCH   8  11
ATOM     11  O   UNL     1       4.598   7.205   2.825  0.00  0.00    +0.000 OA
ATOM     12  C   UNL     1       5.486   7.590   1.768  0.00  0.00    +0.000 C 
ENDBRANCH   8  11
ENDBRANCH   4   5
ENDBRANCH   1   3
BRANCH   1  13
ATOM     13  O   UNL     1       2.198  -1.043   4.440  0.00  0.00    +0.000 OA
BRANCH  13  14
ATOM     14  C   UNL     1       2.463  -2.054   3.415  0.00  0.00    +0.000 C 
BRANCH  14  15
ATOM     15  C   UNL     1       3.078  -1.497   2.148  0.00  0.00    +0.000 C 
ATOM     16  C   UNL     1       4.576  -1.978   2.009  0.00  0.00    +0.000 C 
ENDBRANCH  14  15
BRANCH  14  17
ATOM     17  C   UNL     1       1.203  -2.785   3.048  0.00  0.00    +0.000 C 
BRANCH  17  18
ATOM     18  C   UNL     1       1.508  -4.217   2.576  0.00  0.00    +0.000 C 
BRANCH  18  20
ATOM     19  C   UNL     1       2.264  -4.752   0.258  0.00  0.00    +0.000 C 
ATOM     20  C   UNL     1       1.050  -4.472   1.162  0.00  0.00    +0.000 C 
ENDBRANCH  18  20
ENDBRANCH  17  18
ENDBRANCH  14  17
ENDBRANCH  13  14
ENDBRANCH   1  13
TORSDOF 9
ENDMDL
MODEL 7
REMARK VINA RESULT:      -2.9      6.760     11.093
REMARK  Name = bg33_2_ligand
REMARK  12 active torsions:
REMARK  status: ('A' for Active; 'I' for Inactive)
REMARK    1  A    between atoms: C_1  and  C_2
REMARK    2  A    between atoms: C_2  and  C_3
REMARK    3  A    between atoms: C_3  and  C_4
REMARK    4  A    between atoms: C_4  and  C_5
REMARK    5  A    between atoms: C_5  and  C_6
REMARK    6  A    between atoms: C_5  and  O_8
REMARK    7  A    between atoms: C_6  and  C_7
REMARK    8  A    between atoms: O_8  and  C_9
REMARK    9  A    between atoms: C_9  and  C_11
REMARK   10  A    between atoms: C_12  and  C_13
REMARK   11  A    between atoms: C_16  and  O_17
REMARK   12  A    between atoms: O_17  and  C_18
REMARK                            x       y       z     vdW  Elec       q    Type
REMARK                         _______ _______ _______ _____ _____    ______ ____
ROOT
ATOM      1  C   UNL     1       1.898  -5.820  -3.900  0.00  0.00    +0.000 C 
ATOM      2  O   UNL     1       2.361  -6.908  -4.162  0.00  0.00    +0.000 OA
ENDROOT
BRANCH   1   3
ATOM      3  C   UNL     1       2.825  -4.657  -3.709  0.00  0.00    +0.000 C 
ATOM      4  C   UNL     1       3.747  -4.560  -2.698  0.00  0.00    +0.000 C 
BRANCH   4   5
ATOM      5  C   UNL     1       4.733  -3.417  -2.676  0.00  0.00    +0.000 A 
ATOM      6  C   UNL     1       5.007  -2.709  -3.829  0.00  0.00    +0.000 A 
ATOM      7  C   UNL     1       5.942  -1.679  -3.760  0.00  0.00    +0.000 A 
ATOM      8  C   UNL     1       6.607  -1.337  -2.591  0.00  0.00    +0.000 A 
ATOM      9  C   UNL     1       6.328  -2.078  -1.468  0.00  0.00    +0.000 A 
ATOM     10  C   UNL     1       5.387  -3.116  -1.498  0.00  0.00    +0.000 A 
BRANCH   8  11
ATOM     11  O   UNL     1       7.560  -0.324  -2.568  0.00  0.00    +0.000 OA
ATOM     12  C   UNL     1       8.643  -0.480  -3.494  0.00  0.00    +0.000 C 
ENDBRANCH   8  11
ENDBRANCH   4   5
ENDBRANCH   1   3
BRANCH   1  13
ATOM     13  O   UNL     1       0.490  -5.698  -3.721  0.00  0.00    +0.000 OA
BRANCH  13  14
ATOM     14  C   UNL     1      -0.039  -4.415  -3.256  0.00  0.00    +0.000 C 
BRANCH  14  15
ATOM     15  C   UNL     1      -0.880  -4.517  -1.999  0.00  0.00    +0.000 C 
ATOM     16  C   UNL     1       0.045  -4.739  -0.739  0.00  0.00    +0.000 C 
ENDBRANCH  14  15
BRANCH  14  17
ATOM     17  C   UNL     1      -0.863  -3.758  -4.325  0.00  0.00    +0.000 C 
BRANCH  17  18
ATOM     18  C   UNL     1      -0.393  -2.316  -4.583  0.00  0.00    +0.000 C 
BRANCH  18  20
ATOM     19  C   UNL     1       1.751  -1.160  -5.125  0.00  0.00    +0.000 C 
ATOM     20  C   UNL     1       0.750  -2.245  -5.562  0.00  0.00    +0.000 C 
ENDBRANCH  18  20
ENDBRANCH  17  18
ENDBRANCH  14  17
ENDBRANCH  13  14
ENDBRANCH   1  13
TORSDOF 9
ENDMDL
MODEL 8
REMARK VINA RESULT:      -2.9      5.874      9.167
REMARK  Name = bg33_2_ligand
REMARK  12 active torsions:
REMARK  status: ('A' for Active; 'I' for Inactive)
REMARK    1  A    between atoms: C_1  and  C_2
REMARK    2  A    between atoms: C_2  and  C_3
REMARK    3  A    between atoms: C_3  and  C_4
REMARK    4  A    between atoms: C_4  and  C_5
REMARK    5  A    between atoms: C_5  and  C_6
REMARK    6  A    between atoms: C_5  and  O_8
REMARK    7  A    between atoms: C_6  and  C_7
REMARK    8  A    between atoms: O_8  and  C_9
REMARK    9  A    between atoms: C_9  and  C_11
REMARK   10  A    between atoms: C_12  and  C_13
REMARK   11  A    between atoms: C_16  and  O_17
REMARK   12  A    between atoms: O_17  and  C_18
REMARK                            x       y       z     vdW  Elec       q    Type
REMARK                         _______ _______ _______ _____ _____    ______ ____
ROOT
ATOM      1  C   UNL     1      -1.643  -4.938  -1.143  0.00  0.00    +0.000 C 
ATOM      2  O   UNL     1      -2.837  -4.914  -1.340  0.00  0.00    +0.000 OA
ENDROOT
BRANCH   1   3
ATOM      3  C   UNL     1      -0.733  -4.173  -2.057  0.00  0.00    +0.000 C 
ATOM      4  C   UNL     1      -0.912  -4.064  -3.413  0.00  0.00    +0.000 C 
BRANCH   4   5
ATOM      5  C   UNL     1      -0.026  -3.151  -4.224  0.00  0.00    +0.000 A 
ATOM      6  C   UNL     1       1.283  -3.501  -4.488  0.00  0.00    +0.000 A 
ATOM      7  C   UNL     1       2.066  -2.613  -5.222  0.00  0.00    +0.000 A 
ATOM      8  C   UNL     1       1.591  -1.398  -5.695  0.00  0.00    +0.000 A 
ATOM      9  C   UNL     1       0.291  -1.071  -5.395  0.00  0.00    +0.000 A 
ATOM     10  C   UNL     1      -0.529  -1.943  -4.666  0.00  0.00    +0.000 A 
BRANCH   8  11
ATOM     11  O   UNL     1       2.412  -0.521  -6.396  0.00  0.00    +0.000 OA
ATOM     12  C   UNL     1       3.801  -0.874  -6.425  0.00  0.00    +0.000 C 
ENDBRANCH   8  11
ENDBRANCH   4   5
ENDBRANCH   1   3
BRANCH   1  13
ATOM     13  O   UNL     1      -1.139  -5.747  -0.084  0.00  0.00    +0.000 OA
BRANCH  13  14
ATOM     14  C   UNL     1       0.307  -5.958  -0.004  0.00  0.00    +0.000 C 
BRANCH  14  15
ATOM     15  C   UNL     1       0.727  -7.404  -0.178  0.00  0.00    +0.000 C 
ATOM     16  C   UNL     1       1.181  -7.665  -1.668  0.00  0.00    +0.000 C 
ENDBRANCH  14  15
BRANCH  14  17
ATOM     17  C   UNL     1       0.848  -5.463   1.307  0.00  0.00    +0.000 C 
BRANCH  17  18
ATOM     18  C   UNL     1       1.629  -4.150   1.128  0.00  0.00    +0.000 C 
BRANCH  18  20
ATOM     19  C   UNL     1       2.485  -2.131   2.319  0.00  0.00    +0.000 C 
ATOM     20  C   UNL     1       1.332  -3.146   2.211  0.00  0.00    +0.000 C 
ENDBRANCH  18  20
ENDBRANCH  17  18
ENDBRANCH  14  17
ENDBRANCH  13  14
ENDBRANCH   1  13
TORSDOF 9
ENDMDL
MODEL 9
REMARK VINA RESULT:      -2.8      3.703      5.038
REMARK  Name = bg33_2_ligand
REMARK  12 active torsions:
REMARK  status: ('A' for Active; 'I' for Inactive)
REMARK    1  A    between atoms: C_1  and  C_2
REMARK    2  A    between atoms: C_2  and  C_3
REMARK    3  A    between atoms: C_3  and  C_4
REMARK    4  A    between atoms: C_4  and  C_5
REMARK    5  A    between atoms: C_5  and  C_6
REMARK    6  A    between atoms: C_5  and  O_8
REMARK    7  A    between atoms: C_6  and  C_7
REMARK    8  A    between atoms: O_8  and  C_9
REMARK    9  A    between atoms: C_9  and  C_11
REMARK   10  A    between atoms: C_12  and  C_13
REMARK   11  A    between atoms: C_16  and  O_17
REMARK   12  A    between atoms: O_17  and  C_18
REMARK                            x       y       z     vdW  Elec       q    Type
REMARK                         _______ _______ _______ _____ _____    ______ ____
ROOT
ATOM      1  C   UNL     1       1.336  -2.454   3.985  0.00  0.00    +0.000 C 
ATOM      2  O   UNL     1       1.281  -2.621   2.787  0.00  0.00    +0.000 OA
ENDROOT
BRANCH   1   3
ATOM      3  C   UNL     1       0.078  -2.555   4.797  0.00  0.00    +0.000 C 
ATOM      4  C   UNL     1      -0.704  -1.485   5.148  0.00  0.00    +0.000 C 
BRANCH   4   5
ATOM      5  C   UNL     1      -2.026  -1.706   5.841  0.00  0.00    +0.000 A 
ATOM      6  C   UNL     1      -2.659  -2.930   5.765  0.00  0.00    +0.000 A 
ATOM      7  C   UNL     1      -3.888  -3.075   6.403  0.00  0.00    +0.000 A 
ATOM      8  C   UNL     1      -4.503  -2.048   7.106  0.00  0.00    +0.000 A 
ATOM      9  C   UNL     1      -3.856  -0.836   7.142  0.00  0.00    +0.000 A 
ATOM     10  C   UNL     1      -2.614  -0.656   6.518  0.00  0.00    +0.000 A 
BRANCH   8  11
ATOM     11  O   UNL     1      -5.748  -2.220   7.702  0.00  0.00    +0.000 OA
ATOM     12  C   UNL     1      -6.587  -1.057   7.715  0.00  0.00    +0.000 C 
ENDBRANCH   8  11
ENDBRANCH   4   5
ENDBRANCH   1   3
BRANCH   1  13
ATOM     13  O   UNL     1       2.585  -2.105   4.574  0.00  0.00    +0.000 OA
BRANCH  13  14
ATOM     14  C   UNL     1       2.954  -0.690   4.624  0.00  0.00    +0.000 C 
BRANCH  14  15
ATOM     15  C   UNL     1       3.934  -0.272   3.546  0.00  0.00    +0.000 C 
ATOM     16  C   UNL     1       4.419   1.211   3.793  0.00  0.00    +0.000 C 
ENDBRANCH  14  15
BRANCH  14  17
ATOM     17  C   UNL     1       3.542  -0.338   5.960  0.00  0.00    +0.000 C 
BRANCH  17  18
ATOM     18  C   UNL     1       2.461   0.168   6.930  0.00  0.00    +0.000 C 
BRANCH  18  20
ATOM     19  C   UNL     1       0.365   1.492   7.218  0.00  0.00    +0.000 C 
ATOM     20  C   UNL     1       1.589   1.236   6.321  0.00  0.00    +0.000 C 
ENDBRANCH  18  20
ENDBRANCH  17  18
ENDBRANCH  14  17
ENDBRANCH  13  14
ENDBRANCH   1  13
TORSDOF 9
ENDMDL
