REMARK  Name = ox1_esm1_f8_ligand
REMARK  5 active torsions:
REMARK  status: ('A' for Active; 'I' for Inactive)
REMARK    1  A    between atoms: C_1  and  O_2
REMARK    2  A    between atoms: O_2  and  C_3
REMARK    3  A    between atoms: C_6  and  C_7
REMARK    4  A    between atoms: C_7  and  C_9
REMARK    5  A    between atoms: C_15  and  O_16
REMARK                            x       y       z     vdW  Elec       q    Type
REMARK                         _______ _______ _______ _____ _____    ______ ____
ROOT
ATOM      1  C   UNL     1      -3.942  -1.534   6.104  0.00  0.00    +0.000 A 
ATOM      2  C   UNL     1      -2.874  -1.115   5.311  0.00  0.00    +0.000 A 
ATOM      3  C   UNL     1      -2.495  -1.856   4.201  0.00  0.00    +0.000 A 
ATOM      4  C   UNL     1      -3.173  -3.013   3.855  0.00  0.00    +0.000 A 
ATOM      5  C   UNL     1      -4.249  -3.449   4.656  0.00  0.00    +0.000 A 
ATOM      6  C   UNL     1      -4.616  -2.698   5.771  0.00  0.00    +0.000 A 
ENDROOT
BRANCH   1   8
ATOM      7  C   UNL     1      -5.360  -1.142   8.043  0.00  0.00    +0.000 C 
ATOM      8  O   UNL     1      -4.282  -0.766   7.179  0.00  0.00    +0.000 OA
ENDBRANCH   1   8
BRANCH   4   9
ATOM      9  C   UNL     1      -2.766  -3.799   2.646  0.00  0.00    +0.000 C 
ATOM     10  O   UNL     1      -3.265  -4.904   2.451  0.00  0.00    +0.000 OA
BRANCH   9  11
ATOM     11  C   UNL     1      -1.748  -3.267   1.692  0.00  0.00    +0.000 A 
ATOM     12  C   UNL     1      -0.621  -3.955   1.426  0.00  0.00    +0.000 A 
ATOM     13  C   UNL     1       0.348  -3.542   0.528  0.00  0.00    +0.000 A 
ATOM     14  C   UNL     1       0.184  -2.337  -0.112  0.00  0.00    +0.000 A 
ATOM     15  C   UNL     1      -0.956  -1.590   0.146  0.00  0.00    +0.000 A 
ATOM     16  C   UNL     1      -1.909  -2.060   1.049  0.00  0.00    +0.000 A 
ENDBRANCH   9  11
ENDBRANCH   4   9
BRANCH   5  17
ATOM     17  O   UNL     1      -4.907  -4.598   4.327  0.00  0.00    +0.000 OA
ATOM     18  H   UNL     1      -5.663  -4.912   4.883  0.00  0.00    +0.000 HD
ENDBRANCH   5  17
TORSDOF 4
