REMARK  Name = /Users/cafierom/python_mac/peptidebuilder/runs/oxybenzone/dock/ox1_esm1_f8_rf3cof/ox1_esm1_f8_rf3cof_protein.pdb
REMARK                            x       y       z     vdW  Elec       q    Type
REMARK                         _______ _______ _______ _____ _____    ______ ____
ATOM      1  N   PHE A   1       4.360  -5.914  14.625  0.00  0.00    +0.000 NA
ATOM      2  CA  PHE A   1       3.002  -5.525  14.315  0.00  0.00    +0.000 C 
ATOM      3  C   PHE A   1       2.867  -5.218  12.832  0.00  0.00    +0.000 C 
ATOM      4  O   PHE A   1       2.906  -4.060  12.436  0.00  0.00    +0.000 OA
ATOM      5  CB  PHE A   1       2.589  -4.334  15.186  0.00  0.00    +0.000 C 
ATOM      6  CG  PHE A   1       2.663  -4.599  16.641  0.00  0.00    +0.000 A 
ATOM      7  CD1 PHE A   1       1.699  -5.393  17.259  0.00  0.00    +0.000 A 
ATOM      8  CD2 PHE A   1       3.708  -4.096  17.400  0.00  0.00    +0.000 A 
ATOM      9  CE1 PHE A   1       1.763  -5.635  18.616  0.00  0.00    +0.000 A 
ATOM     10  CE2 PHE A   1       3.779  -4.358  18.783  0.00  0.00    +0.000 A 
ATOM     11  CZ  PHE A   1       2.810  -5.124  19.347  0.00  0.00    +0.000 A 
ATOM     12  N   PRO A   2       2.691  -6.261  12.037  0.00  0.00    +0.000 N 
ATOM     13  CA  PRO A   2       2.692  -6.058  10.565  0.00  0.00    +0.000 C 
ATOM     14  C   PRO A   2       1.551  -5.212  10.066  0.00  0.00    +0.000 C 
ATOM     15  O   PRO A   2       1.681  -4.592   9.022  0.00  0.00    +0.000 OA
ATOM     16  CB  PRO A   2       2.594  -7.485  10.026  0.00  0.00    +0.000 C 
ATOM     17  CG  PRO A   2       2.058  -8.291  11.156  0.00  0.00    +0.000 C 
ATOM     18  CD  PRO A   2       2.602  -7.669  12.400  0.00  0.00    +0.000 C 
ATOM     19  N   ARG A   3       0.423  -5.122  10.760  0.00  0.00    +0.000 N 
ATOM     20  CA  ARG A   3      -0.682  -4.299  10.338  0.00  0.00    +0.000 C 
ATOM     21  C   ARG A   3      -0.253  -2.840  10.249  0.00  0.00    +0.000 C 
ATOM     22  O   ARG A   3      -0.631  -2.130   9.343  0.00  0.00    +0.000 OA
ATOM     23  CB  ARG A   3      -1.855  -4.470  11.269  0.00  0.00    +0.000 C 
ATOM     24  CG  ARG A   3      -3.111  -3.758  10.823  0.00  0.00    +0.000 C 
ATOM     25  CD  ARG A   3      -4.255  -4.087  11.752  0.00  0.00    +0.000 C 
ATOM     26  NE  ARG A   3      -5.520  -3.646  11.246  0.00  0.00    +0.000 NA
ATOM     27  CZ  ARG A   3      -6.673  -3.954  11.798  0.00  0.00    +0.000 C 
ATOM     28  NH1 ARG A   3      -6.765  -4.707  12.853  0.00  0.00    +0.000 N 
ATOM     29  NH2 ARG A   3      -7.796  -3.512  11.235  0.00  0.00    +0.000 NA
ATOM     30  N   LEU A   4       0.528  -2.369  11.194  0.00  0.00    +0.000 N 
ATOM     31  CA  LEU A   4       0.990  -0.970  11.174  0.00  0.00    +0.000 C 
ATOM     32  C   LEU A   4       1.913  -0.734  10.028  0.00  0.00    +0.000 C 
ATOM     33  O   LEU A   4       1.873   0.343   9.413  0.00  0.00    +0.000 OA
ATOM     34  CB  LEU A   4       1.669  -0.647  12.501  0.00  0.00    +0.000 C 
ATOM     35  CG  LEU A   4       0.755  -0.709  13.752  0.00  0.00    +0.000 C 
ATOM     36  CD1 LEU A   4       1.550  -0.446  15.005  0.00  0.00    +0.000 C 
ATOM     37  CD2 LEU A   4      -0.386   0.289  13.614  0.00  0.00    +0.000 C 
ATOM     38  N   LYS A   5       2.767  -1.691   9.691  0.00  0.00    +0.000 N 
ATOM     39  CA  LYS A   5       3.664  -1.531   8.552  0.00  0.00    +0.000 C 
ATOM     40  C   LYS A   5       2.880  -1.445   7.251  0.00  0.00    +0.000 C 
ATOM     41  O   LYS A   5       3.189  -0.631   6.400  0.00  0.00    +0.000 OA
ATOM     42  CB  LYS A   5       4.662  -2.670   8.518  0.00  0.00    +0.000 C 
ATOM     43  CG  LYS A   5       5.680  -2.571   7.422  0.00  0.00    +0.000 C 
ATOM     44  CD  LYS A   5       6.740  -3.652   7.516  0.00  0.00    +0.000 C 
ATOM     45  CE  LYS A   5       7.755  -3.511   6.398  0.00  0.00    +0.000 C 
ATOM     46  NZ  LYS A   5       8.786  -4.561   6.524  0.00  0.00    +0.000 N 
ATOM     47  N   LEU A   6       1.892  -2.274   7.099  0.00  0.00    +0.000 N 
ATOM     48  CA  LEU A   6       1.093  -2.258   5.869  0.00  0.00    +0.000 C 
ATOM     49  C   LEU A   6       0.332  -0.954   5.723  0.00  0.00    +0.000 C 
ATOM     50  O   LEU A   6       0.169  -0.439   4.617  0.00  0.00    +0.000 OA
ATOM     51  CB  LEU A   6       0.135  -3.451   5.845  0.00  0.00    +0.000 C 
ATOM     52  CG  LEU A   6       0.800  -4.798   5.603  0.00  0.00    +0.000 C 
ATOM     53  CD1 LEU A   6      -0.205  -5.908   5.838  0.00  0.00    +0.000 C 
ATOM     54  CD2 LEU A   6       1.377  -4.879   4.210  0.00  0.00    +0.000 C 
ATOM     55  N   LYS A   7      -0.163  -0.396   6.784  0.00  0.00    +0.000 N 
ATOM     56  CA  LYS A   7      -0.860   0.883   6.728  0.00  0.00    +0.000 C 
ATOM     57  C   LYS A   7       0.088   1.998   6.250  0.00  0.00    +0.000 C 
ATOM     58  O   LYS A   7      -0.289   2.811   5.416  0.00  0.00    +0.000 OA
ATOM     59  CB  LYS A   7      -1.458   1.224   8.070  0.00  0.00    +0.000 C 
ATOM     60  CG  LYS A   7      -2.272   2.510   8.096  0.00  0.00    +0.000 C 
ATOM     61  CD  LYS A   7      -2.923   2.720   9.435  0.00  0.00    +0.000 C 
ATOM     62  CE  LYS A   7      -3.663   4.041   9.488  0.00  0.00    +0.000 C 
ATOM     63  NZ  LYS A   7      -4.844   4.016   8.586  0.00  0.00    +0.000 N 
ATOM     64  N   SER A   8       1.306   2.004   6.740  0.00  0.00    +0.000 N 
ATOM     65  CA  SER A   8       2.277   2.987   6.294  0.00  0.00    +0.000 C 
ATOM     66  C   SER A   8       2.587   2.839   4.824  0.00  0.00    +0.000 C 
ATOM     67  O   SER A   8       2.750   3.823   4.106  0.00  0.00    +0.000 OA
ATOM     68  CB  SER A   8       3.559   2.858   7.117  0.00  0.00    +0.000 C 
ATOM     69  OG  SER A   8       3.326   3.215   8.480  0.00  0.00    +0.000 OA
ATOM     70  N   ASP A   9       2.688   1.602   4.345  0.00  0.00    +0.000 N 
ATOM     71  CA  ASP A   9       2.926   1.352   2.922  0.00  0.00    +0.000 C 
ATOM     72  C   ASP A   9       1.772   1.879   2.074  0.00  0.00    +0.000 C 
ATOM     73  O   ASP A   9       1.997   2.466   1.011  0.00  0.00    +0.000 OA
ATOM     74  CB  ASP A   9       3.113  -0.139   2.665  0.00  0.00    +0.000 C 
ATOM     75  CG  ASP A   9       4.418  -0.676   3.185  0.00  0.00    +0.000 C 
ATOM     76  OD1 ASP A   9       5.333   0.121   3.514  0.00  0.00    +0.000 OA
ATOM     77  OD2 ASP A   9       4.565  -1.899   3.238  0.00  0.00    +0.000 OA
ATOM     78  N   ALA A  10       0.538   1.669   2.514  0.00  0.00    +0.000 N 
ATOM     79  CA  ALA A  10      -0.619   2.171   1.784  0.00  0.00    +0.000 C 
ATOM     80  C   ALA A  10      -0.591   3.688   1.692  0.00  0.00    +0.000 C 
ATOM     81  O   ALA A  10      -0.926   4.267   0.683  0.00  0.00    +0.000 OA
ATOM     82  CB  ALA A  10      -1.910   1.685   2.439  0.00  0.00    +0.000 C 
ATOM     83  N   GLU A  11      -0.212   4.353   2.792  0.00  0.00    +0.000 N 
ATOM     84  CA  GLU A  11      -0.127   5.794   2.781  0.00  0.00    +0.000 C 
ATOM     85  C   GLU A  11       0.942   6.289   1.816  0.00  0.00    +0.000 C 
ATOM     86  O   GLU A  11       0.735   7.288   1.119  0.00  0.00    +0.000 OA
ATOM     87  CB  GLU A  11       0.140   6.304   4.183  0.00  0.00    +0.000 C 
ATOM     88  CG  GLU A  11      -1.046   6.083   5.107  0.00  0.00    +0.000 C 
ATOM     89  CD  GLU A  11      -0.731   6.287   6.586  0.00  0.00    +0.000 C 
ATOM     90  OE1 GLU A  11       0.451   6.435   6.942  0.00  0.00    +0.000 OA
ATOM     91  OE2 GLU A  11      -1.687   6.312   7.390  0.00  0.00    +0.000 OA
ATOM     92  N   ALA A  12       2.058   5.590   1.734  0.00  0.00    +0.000 N 
ATOM     93  CA  ALA A  12       3.113   5.964   0.792  0.00  0.00    +0.000 C 
ATOM     94  C   ALA A  12       2.637   5.814  -0.648  0.00  0.00    +0.000 C 
ATOM     95  O   ALA A  12       2.899   6.659  -1.500  0.00  0.00    +0.000 OA
ATOM     96  CB  ALA A  12       4.362   5.125   1.042  0.00  0.00    +0.000 C 
ATOM     97  N   ILE A  13       1.940   4.706  -0.953  0.00  0.00    +0.000 N 
ATOM     98  CA  ILE A  13       1.413   4.489  -2.299  0.00  0.00    +0.000 C 
ATOM     99  C   ILE A  13       0.423   5.583  -2.668  0.00  0.00    +0.000 C 
ATOM    100  O   ILE A  13       0.448   6.098  -3.768  0.00  0.00    +0.000 OA
ATOM    101  CB  ILE A  13       0.784   3.097  -2.395  0.00  0.00    +0.000 C 
ATOM    102  CG1 ILE A  13       1.888   2.030  -2.291  0.00  0.00    +0.000 C 
ATOM    103  CG2 ILE A  13      -0.009   2.929  -3.695  0.00  0.00    +0.000 C 
ATOM    104  CD1 ILE A  13       1.331   0.614  -2.026  0.00  0.00    +0.000 C 
ATOM    105  N   ALA A  14      -0.449   5.943  -1.743  0.00  0.00    +0.000 N 
ATOM    106  CA  ALA A  14      -1.417   7.009  -2.000  0.00  0.00    +0.000 C 
ATOM    107  C   ALA A  14      -0.722   8.307  -2.302  0.00  0.00    +0.000 C 
ATOM    108  O   ALA A  14      -1.154   9.047  -3.178  0.00  0.00    +0.000 OA
ATOM    109  CB  ALA A  14      -2.367   7.154  -0.812  0.00  0.00    +0.000 C 
ATOM    110  N   SER A  15       0.348   8.633  -1.591  0.00  0.00    +0.000 N 
ATOM    111  CA  SER A  15       1.084   9.856  -1.853  0.00  0.00    +0.000 C 
ATOM    112  C   SER A  15       1.671   9.874  -3.248  0.00  0.00    +0.000 C 
ATOM    113  O   SER A  15       1.654  10.862  -3.951  0.00  0.00    +0.000 OA
ATOM    114  CB  SER A  15       2.191  10.063  -0.829  0.00  0.00    +0.000 C 
ATOM    115  OG  SER A  15       1.655  10.299   0.468  0.00  0.00    +0.000 OA
ATOM    116  N   ARG A  16       2.231   8.704  -3.681  0.00  0.00    +0.000 N 
ATOM    117  CA  ARG A  16       2.767   8.589  -5.029  0.00  0.00    +0.000 C 
ATOM    118  C   ARG A  16       1.674   8.775  -6.069  0.00  0.00    +0.000 C 
ATOM    119  O   ARG A  16       1.874   9.443  -7.083  0.00  0.00    +0.000 OA
ATOM    120  CB  ARG A  16       3.440   7.250  -5.212  0.00  0.00    +0.000 C 
ATOM    121  CG  ARG A  16       4.712   7.081  -4.396  0.00  0.00    +0.000 C 
ATOM    122  CD  ARG A  16       5.271   5.676  -4.541  0.00  0.00    +0.000 C 
ATOM    123  NE  ARG A  16       6.445   5.503  -3.732  0.00  0.00    +0.000 NA
ATOM    124  CZ  ARG A  16       7.107   4.350  -3.582  0.00  0.00    +0.000 C 
ATOM    125  NH1 ARG A  16       6.671   3.267  -4.181  0.00  0.00    +0.000 N 
ATOM    126  NH2 ARG A  16       8.204   4.314  -2.827  0.00  0.00    +0.000 NA
ATOM    127  N   LEU A  17       0.512   8.180  -5.829  0.00  0.00    +0.000 N 
ATOM    128  CA  LEU A  17      -0.576   8.272  -6.809  0.00  0.00    +0.000 C 
ATOM    129  C   LEU A  17      -1.099   9.669  -6.951  0.00  0.00    +0.000 C 
ATOM    130  O   LEU A  17      -1.535  10.080  -8.051  0.00  0.00    +0.000 OA
ATOM    131  CB  LEU A  17      -1.706   7.320  -6.397  0.00  0.00    +0.000 C 
ATOM    132  CG  LEU A  17      -1.438   5.848  -6.584  0.00  0.00    +0.000 C 
ATOM    133  CD1 LEU A  17      -2.572   5.018  -5.984  0.00  0.00    +0.000 C 
ATOM    134  CD2 LEU A  17      -1.212   5.497  -8.036  0.00  0.00    +0.000 C 
ATOM    135  N   ASP A  18      -1.110  10.440  -5.877  0.00  0.00    +0.000 N 
ATOM    136  CA  ASP A  18      -1.654  11.804  -5.996  0.00  0.00    +0.000 C 
ATOM    137  C   ASP A  18      -0.633  12.831  -6.488  0.00  0.00    +0.000 C 
ATOM    138  O   ASP A  18      -0.954  14.001  -6.550  0.00  0.00    +0.000 OA
ATOM    139  CB  ASP A  18      -2.373  12.234  -4.720  0.00  0.00    +0.000 C 
ATOM    140  CG  ASP A  18      -1.454  12.560  -3.554  0.00  0.00    +0.000 C 
ATOM    141  OD1 ASP A  18      -0.263  12.802  -3.726  0.00  0.00    +0.000 OA
ATOM    142  OD2 ASP A  18      -1.989  12.577  -2.406  0.00  0.00    +0.000 OA
ATOM    143  N   GLY A  19       0.536  12.396  -6.897  0.00  0.00    +0.000 N 
ATOM    144  CA  GLY A  19       1.504  13.257  -7.541  0.00  0.00    +0.000 C 
ATOM    145  C   GLY A  19       2.638  13.736  -6.634  0.00  0.00    +0.000 C 
ATOM    146  O   GLY A  19       3.478  14.490  -7.105  0.00  0.00    +0.000 OA
ATOM    147  N   SER A  20       2.662  13.280  -5.404  0.00  0.00    +0.000 N 
ATOM    148  CA  SER A  20       3.752  13.675  -4.528  0.00  0.00    +0.000 C 
ATOM    149  C   SER A  20       5.081  13.179  -5.068  0.00  0.00    +0.000 C 
ATOM    150  O   SER A  20       5.165  12.056  -5.606  0.00  0.00    +0.000 OA
ATOM    151  CB  SER A  20       3.524  13.120  -3.134  0.00  0.00    +0.000 C 
ATOM    152  OG  SER A  20       4.641  13.375  -2.311  0.00  0.00    +0.000 OA
ATOM    153  N   THR A  21       6.136  13.963  -4.910  0.00  0.00    +0.000 N 
ATOM    154  CA  THR A  21       7.473  13.557  -5.293  0.00  0.00    +0.000 C 
ATOM    155  C   THR A  21       8.321  13.171  -4.109  0.00  0.00    +0.000 C 
ATOM    156  O   THR A  21       9.493  12.873  -4.244  0.00  0.00    +0.000 OA
ATOM    157  CB  THR A  21       8.208  14.672  -6.052  0.00  0.00    +0.000 C 
ATOM    158  OG1 THR A  21       8.296  15.840  -5.230  0.00  0.00    +0.000 OA
ATOM    159  CG2 THR A  21       7.446  15.006  -7.333  0.00  0.00    +0.000 C 
ATOM    160  N   ALA A  22       7.734  13.112  -2.927  0.00  0.00    +0.000 N 
ATOM    161  CA  ALA A  22       8.522  12.867  -1.719  0.00  0.00    +0.000 C 
ATOM    162  C   ALA A  22       9.111  11.439  -1.676  0.00  0.00    +0.000 C 
ATOM    163  O   ALA A  22      10.086  11.255  -0.965  0.00  0.00    +0.000 OA
ATOM    164  CB  ALA A  22       7.629  13.067  -0.483  0.00  0.00    +0.000 C 
ATOM    165  N   TRP A  23       8.588  10.511  -2.417  0.00  0.00    +0.000 N 
ATOM    166  CA  TRP A  23       8.973   9.111  -2.322  0.00  0.00    +0.000 C 
ATOM    167  C   TRP A  23       9.851   8.675  -3.475  0.00  0.00    +0.000 C 
ATOM    168  O   TRP A  23      10.215   7.492  -3.543  0.00  0.00    +0.000 OA
ATOM    169  CB  TRP A  23       7.750   8.222  -2.219  0.00  0.00    +0.000 C 
ATOM    170  CG  TRP A  23       6.871   8.623  -1.093  0.00  0.00    +0.000 C 
ATOM    171  CD1 TRP A  23       5.703   9.300  -1.176  0.00  0.00    +0.000 C 
ATOM    172  CD2 TRP A  23       7.098   8.349   0.308  0.00  0.00    +0.000 C 
ATOM    173  NE1 TRP A  23       5.204   9.501   0.086  0.00  0.00    +0.000 NA
ATOM    174  CE2 TRP A  23       6.021   8.918   1.017  0.00  0.00    +0.000 C 
ATOM    175  CE3 TRP A  23       8.090   7.698   1.012  0.00  0.00    +0.000 C 
ATOM    176  CZ2 TRP A  23       5.927   8.864   2.414  0.00  0.00    +0.000 C 
ATOM    177  CZ3 TRP A  23       8.010   7.638   2.392  0.00  0.00    +0.000 C 
ATOM    178  CH2 TRP A  23       6.943   8.207   3.065  0.00  0.00    +0.000 C 
ATOM    179  N   THR A  24      10.226   9.555  -4.360  0.00  0.00    +0.000 N 
ATOM    180  CA  THR A  24      11.027   9.192  -5.526  0.00  0.00    +0.000 C 
ATOM    181  C   THR A  24      12.398   9.806  -5.470  0.00  0.00    +0.000 C 
ATOM    182  O   THR A  24      12.589  10.839  -4.818  0.00  0.00    +0.000 OA
ATOM    183  CB  THR A  24      10.320   9.622  -6.842  0.00  0.00    +0.000 C 
ATOM    184  OG1 THR A  24      10.179  11.028  -6.863  0.00  0.00    +0.000 OA
ATOM    185  CG2 THR A  24       8.957   8.928  -6.959  0.00  0.00    +0.000 C 
ATOM    186  N   ASP A  25      13.347   9.195  -6.161  0.00  0.00    +0.000 N 
ATOM    187  CA  ASP A  25      14.665   9.756  -6.333  0.00  0.00    +0.000 C 
ATOM    188  C   ASP A  25      14.771  10.505  -7.645  0.00  0.00    +0.000 C 
ATOM    189  O   ASP A  25      14.193  10.087  -8.630  0.00  0.00    +0.000 OA
ATOM    190  CB  ASP A  25      15.710   8.644  -6.266  0.00  0.00    +0.000 C 
ATOM    191  CG  ASP A  25      15.832   7.985  -4.903  0.00  0.00    +0.000 C 
ATOM    192  OD1 ASP A  25      15.525   8.666  -3.897  0.00  0.00    +0.000 OA
ATOM    193  OD2 ASP A  25      16.228   6.823  -4.845  0.00  0.00    +0.000 OA
ATOM    194  H   PHE A   1       4.628  -6.707  14.042  0.00  0.00    +0.000 HD
ATOM    195  H   PHE A   1       4.422  -6.179  15.608  0.00  0.00    +0.000 HD
ATOM    196  H   ARG A   3       0.338  -5.637  11.595  0.00  0.00    +0.000 HD
ATOM    197  H   ARG A   3      -7.649  -4.913  13.235  0.00  0.00    +0.000 HD
ATOM    198  H   ARG A   3      -5.951  -5.071  13.270  0.00  0.00    +0.000 HD
ATOM    199  H   ARG A   3      -7.753  -2.940  10.435  0.00  0.00    +0.000 HD
ATOM    200  H   ARG A   3      -8.669  -3.757  11.619  0.00  0.00    +0.000 HD
ATOM    201  H   ARG A   3      -7.137  -3.493  10.504  0.00  0.00    +0.000 HD
ATOM    202  H   LEU A   4       0.810  -2.961  11.929  0.00  0.00    +0.000 HD
ATOM    203  H   LYS A   5       2.796  -2.522  10.218  0.00  0.00    +0.000 HD
ATOM    204  H   LYS A   5       8.346  -5.479   6.464  0.00  0.00    +0.000 HD
ATOM    205  H   LYS A   5       9.257  -4.469   7.424  0.00  0.00    +0.000 HD
ATOM    206  H   LYS A   5       9.467  -4.461   5.772  0.00  0.00    +0.000 HD
ATOM    207  H   LEU A   6       1.678  -2.917   7.813  0.00  0.00    +0.000 HD
ATOM    208  H   LYS A   7      -0.065  -0.849   7.652  0.00  0.00    +0.000 HD
ATOM    209  H   LYS A   7      -5.482   3.277   8.881  0.00  0.00    +0.000 HD
ATOM    210  H   LYS A   7      -4.538   3.839   7.629  0.00  0.00    +0.000 HD
ATOM    211  H   LYS A   7      -5.323   4.915   8.628  0.00  0.00    +0.000 HD
ATOM    212  H   SER A   8       1.563   1.336   7.416  0.00  0.00    +0.000 HD
ATOM    213  H   SER A   8       3.027   4.136   8.526  0.00  0.00    +0.000 HD
ATOM    214  H   ASP A   9       2.601   0.838   4.960  0.00  0.00    +0.000 HD
ATOM    215  H   ASP A   9       5.190   1.046   3.462  0.00  0.00    +0.000 HD
ATOM    216  H   ALA A  10       0.402   1.165   3.349  0.00  0.00    +0.000 HD
ATOM    217  H   GLU A  11       0.010   3.856   3.612  0.00  0.00    +0.000 HD
ATOM    218  H   GLU A  11      -2.563   6.196   7.080  0.00  0.00    +0.000 HD
ATOM    219  H   ALA A  12       2.183   4.805   2.315  0.00  0.00    +0.000 HD
ATOM    220  H   ILE A  13       1.781   4.028  -0.257  0.00  0.00    +0.000 HD
ATOM    221  H   ALA A  14      -0.447   5.488  -0.870  0.00  0.00    +0.000 HD
ATOM    222  H   SER A  15       0.650   8.033  -0.871  0.00  0.00    +0.000 HD
ATOM    223  H   SER A  15       1.110  11.101   0.451  0.00  0.00    +0.000 HD
ATOM    224  H   ARG A  16       2.272   7.930  -3.074  0.00  0.00    +0.000 HD
ATOM    225  H   ARG A  16       5.859   3.305  -4.737  0.00  0.00    +0.000 HD
ATOM    226  H   ARG A  16       7.156   2.417  -4.075  0.00  0.00    +0.000 HD
ATOM    227  H   ARG A  16       8.695   3.469  -2.713  0.00  0.00    +0.000 HD
ATOM    228  H   ARG A  16       8.523   5.133  -2.383  0.00  0.00    +0.000 HD
ATOM    229  H   ARG A  16       8.855   3.650  -3.150  0.00  0.00    +0.000 HD
ATOM    230  H   LEU A  17       0.380   7.677  -4.993  0.00  0.00    +0.000 HD
ATOM    231  H   ASP A  18      -0.762  10.110  -5.017  0.00  0.00    +0.000 HD
ATOM    232  H   ASP A  18      -2.902  12.387  -2.312  0.00  0.00    +0.000 HD
ATOM    233  H   GLY A  19       0.763  11.448  -6.760  0.00  0.00    +0.000 HD
ATOM    234  H   SER A  20       1.952  12.680  -5.080  0.00  0.00    +0.000 HD
ATOM    235  H   SER A  20       5.425  12.947  -2.689  0.00  0.00    +0.000 HD
ATOM    236  H   THR A  21       6.007  14.856  -4.517  0.00  0.00    +0.000 HD
ATOM    237  H   THR A  21       7.403  16.144  -5.004  0.00  0.00    +0.000 HD
ATOM    238  H   ALA A  22       6.759  13.234  -2.859  0.00  0.00    +0.000 HD
ATOM    239  H   TRP A  23       7.900  10.766  -3.073  0.00  0.00    +0.000 HD
ATOM    240  H   THR A  24       9.961  10.495  -4.239  0.00  0.00    +0.000 HD
ATOM    241  H   THR A  24       9.643  11.310  -6.106  0.00  0.00    +0.000 HD
ATOM    242  H   ASP A  25      13.146   8.324  -6.574  0.00  0.00    +0.000 HD
ATOM    243  H   ASP A  25      15.229   9.549  -4.001  0.00  0.00    +0.000 HD
TER 
