MODEL 1
REMARK VINA RESULT:      -4.4      0.000      0.000
REMARK  Name = ox1_esm1_f8_ligand
REMARK  5 active torsions:
REMARK  status: ('A' for Active; 'I' for Inactive)
REMARK    1  A    between atoms: C_1  and  O_2
REMARK    2  A    between atoms: O_2  and  C_3
REMARK    3  A    between atoms: C_6  and  C_7
REMARK    4  A    between atoms: C_7  and  C_9
REMARK    5  A    between atoms: C_15  and  O_16
REMARK                            x       y       z     vdW  Elec       q    Type
REMARK                         _______ _______ _______ _____ _____    ______ ____
ROOT
ATOM      1  C   UNL     1      -4.422   4.318   3.063  0.00  0.00    +0.000 A 
ATOM      2  C   UNL     1      -3.648   4.225   4.220  0.00  0.00    +0.000 A 
ATOM      3  C   UNL     1      -3.979   3.311   5.210  0.00  0.00    +0.000 A 
ATOM      4  C   UNL     1      -5.070   2.471   5.064  0.00  0.00    +0.000 A 
ATOM      5  C   UNL     1      -5.863   2.564   3.902  0.00  0.00    +0.000 A 
ATOM      6  C   UNL     1      -5.523   3.490   2.917  0.00  0.00    +0.000 A 
ENDROOT
BRANCH   1   8
ATOM      7  C   UNL     1      -3.755   6.582   2.467  0.00  0.00    +0.000 C 
ATOM      8  O   UNL     1      -4.051   5.226   2.115  0.00  0.00    +0.000 OA
ENDBRANCH   1   8
BRANCH   4   9
ATOM      9  C   UNL     1      -5.411   1.477   6.132  0.00  0.00    +0.000 C 
ATOM     10  O   UNL     1      -6.317   1.729   6.922  0.00  0.00    +0.000 OA
BRANCH   9  11
ATOM     11  C   UNL     1      -4.650   0.199   6.262  0.00  0.00    +0.000 A 
ATOM     12  C   UNL     1      -4.567  -0.442   7.443  0.00  0.00    +0.000 A 
ATOM     13  C   UNL     1      -3.911  -1.646   7.630  0.00  0.00    +0.000 A 
ATOM     14  C   UNL     1      -3.264  -2.218   6.561  0.00  0.00    +0.000 A 
ATOM     15  C   UNL     1      -3.311  -1.581   5.330  0.00  0.00    +0.000 A 
ATOM     16  C   UNL     1      -4.000  -0.376   5.193  0.00  0.00    +0.000 A 
ENDBRANCH   9  11
ENDBRANCH   4   9
BRANCH   5  17
ATOM     17  O   UNL     1      -6.949   1.750   3.765  0.00  0.00    +0.000 OA
ATOM     18  H   UNL     1      -7.262   1.208   4.532  0.00  0.00    +0.000 HD
ENDBRANCH   5  17
TORSDOF 4
ENDMDL
MODEL 2
REMARK VINA RESULT:      -4.4      1.392      2.248
REMARK  Name = ox1_esm1_f8_ligand
REMARK  5 active torsions:
REMARK  status: ('A' for Active; 'I' for Inactive)
REMARK    1  A    between atoms: C_1  and  O_2
REMARK    2  A    between atoms: O_2  and  C_3
REMARK    3  A    between atoms: C_6  and  C_7
REMARK    4  A    between atoms: C_7  and  C_9
REMARK    5  A    between atoms: C_15  and  O_16
REMARK                            x       y       z     vdW  Elec       q    Type
REMARK                         _______ _______ _______ _____ _____    ______ ____
ROOT
ATOM      1  C   UNL     1      -4.629   4.170   2.171  0.00  0.00    +0.000 A 
ATOM      2  C   UNL     1      -5.451   3.044   2.140  0.00  0.00    +0.000 A 
ATOM      3  C   UNL     1      -5.714   2.338   3.305  0.00  0.00    +0.000 A 
ATOM      4  C   UNL     1      -5.177   2.743   4.516  0.00  0.00    +0.000 A 
ATOM      5  C   UNL     1      -4.338   3.876   4.555  0.00  0.00    +0.000 A 
ATOM      6  C   UNL     1      -4.078   4.572   3.377  0.00  0.00    +0.000 A 
ENDROOT
BRANCH   1   8
ATOM      7  C   UNL     1      -4.340   4.133  -0.246  0.00  0.00    +0.000 C 
ATOM      8  O   UNL     1      -4.409   4.835   1.000  0.00  0.00    +0.000 OA
ENDBRANCH   1   8
BRANCH   4   9
ATOM      9  C   UNL     1      -5.478   1.983   5.772  0.00  0.00    +0.000 C 
ATOM     10  O   UNL     1      -6.260   2.459   6.590  0.00  0.00    +0.000 OA
BRANCH   9  11
ATOM     11  C   UNL     1      -4.823   0.670   6.050  0.00  0.00    +0.000 A 
ATOM     12  C   UNL     1      -4.097   0.043   5.104  0.00  0.00    +0.000 A 
ATOM     13  C   UNL     1      -3.433  -1.155   5.301  0.00  0.00    +0.000 A 
ATOM     14  C   UNL     1      -3.543  -1.777   6.521  0.00  0.00    +0.000 A 
ATOM     15  C   UNL     1      -4.294  -1.172   7.518  0.00  0.00    +0.000 A 
ATOM     16  C   UNL     1      -4.930   0.044   7.272  0.00  0.00    +0.000 A 
ENDBRANCH   9  11
ENDBRANCH   4   9
BRANCH   5  17
ATOM     17  O   UNL     1      -3.793   4.265   5.744  0.00  0.00    +0.000 OA
ATOM     18  H   UNL     1      -4.340   4.246   6.569  0.00  0.00    +0.000 HD
ENDBRANCH   5  17
TORSDOF 4
ENDMDL
MODEL 3
REMARK VINA RESULT:      -4.4      3.545      5.749
REMARK  Name = ox1_esm1_f8_ligand
REMARK  5 active torsions:
REMARK  status: ('A' for Active; 'I' for Inactive)
REMARK    1  A    between atoms: C_1  and  O_2
REMARK    2  A    between atoms: O_2  and  C_3
REMARK    3  A    between atoms: C_6  and  C_7
REMARK    4  A    between atoms: C_7  and  C_9
REMARK    5  A    between atoms: C_15  and  O_16
REMARK                            x       y       z     vdW  Elec       q    Type
REMARK                         _______ _______ _______ _____ _____    ______ ____
ROOT
ATOM      1  C   UNL     1      -3.755  -0.841   5.784  0.00  0.00    +0.000 A 
ATOM      2  C   UNL     1      -3.618  -1.808   6.780  0.00  0.00    +0.000 A 
ATOM      3  C   UNL     1      -4.318  -1.687   7.972  0.00  0.00    +0.000 A 
ATOM      4  C   UNL     1      -5.170  -0.616   8.189  0.00  0.00    +0.000 A 
ATOM      5  C   UNL     1      -5.308   0.370   7.191  0.00  0.00    +0.000 A 
ATOM      6  C   UNL     1      -4.595   0.239   6.000  0.00  0.00    +0.000 A 
ENDROOT
BRANCH   1   8
ATOM      7  C   UNL     1      -2.944  -2.298   4.011  0.00  0.00    +0.000 C 
ATOM      8  O   UNL     1      -3.053  -1.010   4.626  0.00  0.00    +0.000 OA
ENDBRANCH   1   8
BRANCH   4   9
ATOM      9  C   UNL     1      -5.933  -0.502   9.473  0.00  0.00    +0.000 C 
ATOM     10  O   UNL     1      -7.048  -1.010   9.558  0.00  0.00    +0.000 OA
BRANCH   9  11
ATOM     11  C   UNL     1      -5.366   0.240  10.639  0.00  0.00    +0.000 A 
ATOM     12  C   UNL     1      -5.929   1.384  11.072  0.00  0.00    +0.000 A 
ATOM     13  C   UNL     1      -5.481   2.105  12.166  0.00  0.00    +0.000 A 
ATOM     14  C   UNL     1      -4.369   1.659  12.840  0.00  0.00    +0.000 A 
ATOM     15  C   UNL     1      -3.751   0.492  12.415  0.00  0.00    +0.000 A 
ATOM     16  C   UNL     1      -4.253  -0.204  11.316  0.00  0.00    +0.000 A 
ENDBRANCH   9  11
ENDBRANCH   4   9
BRANCH   5  17
ATOM     17  O   UNL     1      -6.132   1.435   7.410  0.00  0.00    +0.000 OA
ATOM     18  H   UNL     1      -7.001   1.303   7.865  0.00  0.00    +0.000 HD
ENDBRANCH   5  17
TORSDOF 4
ENDMDL
MODEL 4
REMARK VINA RESULT:      -4.2      4.441      5.671
REMARK  Name = ox1_esm1_f8_ligand
REMARK  5 active torsions:
REMARK  status: ('A' for Active; 'I' for Inactive)
REMARK    1  A    between atoms: C_1  and  O_2
REMARK    2  A    between atoms: O_2  and  C_3
REMARK    3  A    between atoms: C_6  and  C_7
REMARK    4  A    between atoms: C_7  and  C_9
REMARK    5  A    between atoms: C_15  and  O_16
REMARK                            x       y       z     vdW  Elec       q    Type
REMARK                         _______ _______ _______ _____ _____    ______ ____
ROOT
ATOM      1  C   UNL     1      -2.467  -0.953  -0.221  0.00  0.00    +0.000 A 
ATOM      2  C   UNL     1      -3.709  -1.287   0.317  0.00  0.00    +0.000 A 
ATOM      3  C   UNL     1      -3.788  -1.952   1.533  0.00  0.00    +0.000 A 
ATOM      4  C   UNL     1      -2.642  -2.284   2.235  0.00  0.00    +0.000 A 
ATOM      5  C   UNL     1      -1.381  -1.958   1.694  0.00  0.00    +0.000 A 
ATOM      6  C   UNL     1      -1.316  -1.295   0.470  0.00  0.00    +0.000 A 
ENDROOT
BRANCH   1   8
ATOM      7  C   UNL     1      -2.318   1.134  -1.465  0.00  0.00    +0.000 C 
ATOM      8  O   UNL     1      -2.442  -0.291  -1.414  0.00  0.00    +0.000 OA
ENDBRANCH   1   8
BRANCH   4   9
ATOM      9  C   UNL     1      -2.737  -2.989   3.554  0.00  0.00    +0.000 C 
ATOM     10  O   UNL     1      -2.425  -4.174   3.626  0.00  0.00    +0.000 OA
BRANCH   9  11
ATOM     11  C   UNL     1      -3.227  -2.276   4.771  0.00  0.00    +0.000 A 
ATOM     12  C   UNL     1      -3.568  -0.974   4.722  0.00  0.00    +0.000 A 
ATOM     13  C   UNL     1      -4.063  -0.259   5.799  0.00  0.00    +0.000 A 
ATOM     14  C   UNL     1      -4.183  -0.892   7.012  0.00  0.00    +0.000 A 
ATOM     15  C   UNL     1      -3.827  -2.229   7.109  0.00  0.00    +0.000 A 
ATOM     16  C   UNL     1      -3.349  -2.907   5.989  0.00  0.00    +0.000 A 
ENDBRANCH   9  11
ENDBRANCH   4   9
BRANCH   5  17
ATOM     17  O   UNL     1      -0.250  -2.300   2.376  0.00  0.00    +0.000 OA
ATOM     18  H   UNL     1       0.040  -1.763   3.155  0.00  0.00    +0.000 HD
ENDBRANCH   5  17
TORSDOF 4
ENDMDL
MODEL 5
REMARK VINA RESULT:      -4.1      4.019      6.583
REMARK  Name = ox1_esm1_f8_ligand
REMARK  5 active torsions:
REMARK  status: ('A' for Active; 'I' for Inactive)
REMARK    1  A    between atoms: C_1  and  O_2
REMARK    2  A    between atoms: O_2  and  C_3
REMARK    3  A    between atoms: C_6  and  C_7
REMARK    4  A    between atoms: C_7  and  C_9
REMARK    5  A    between atoms: C_15  and  O_16
REMARK                            x       y       z     vdW  Elec       q    Type
REMARK                         _______ _______ _______ _____ _____    ______ ____
ROOT
ATOM      1  C   UNL     1      -4.188  -0.940   6.817  0.00  0.00    +0.000 A 
ATOM      2  C   UNL     1      -4.046  -0.290   5.591  0.00  0.00    +0.000 A 
ATOM      3  C   UNL     1      -3.662  -1.002   4.463  0.00  0.00    +0.000 A 
ATOM      4  C   UNL     1      -3.425  -2.364   4.530  0.00  0.00    +0.000 A 
ATOM      5  C   UNL     1      -3.557  -3.029   5.768  0.00  0.00    +0.000 A 
ATOM      6  C   UNL     1      -3.939  -2.301   6.894  0.00  0.00    +0.000 A 
ENDROOT
BRANCH   1   8
ATOM      7  C   UNL     1      -4.425  -0.699   9.227  0.00  0.00    +0.000 C 
ATOM      8  O   UNL     1      -4.577  -0.199   7.894  0.00  0.00    +0.000 OA
ENDBRANCH   1   8
BRANCH   4   9
ATOM      9  C   UNL     1      -3.025  -3.127   3.304  0.00  0.00    +0.000 C 
ATOM     10  O   UNL     1      -3.436  -4.273   3.148  0.00  0.00    +0.000 OA
BRANCH   9  11
ATOM     11  C   UNL     1      -2.117  -2.520   2.285  0.00  0.00    +0.000 A 
ATOM     12  C   UNL     1      -0.779  -2.625   2.399  0.00  0.00    +0.000 A 
ATOM     13  C   UNL     1       0.121  -2.120   1.477  0.00  0.00    +0.000 A 
ATOM     14  C   UNL     1      -0.363  -1.431   0.391  0.00  0.00    +0.000 A 
ATOM     15  C   UNL     1      -1.735  -1.288   0.245  0.00  0.00    +0.000 A 
ATOM     16  C   UNL     1      -2.599  -1.830   1.196  0.00  0.00    +0.000 A 
ENDBRANCH   9  11
ENDBRANCH   4   9
BRANCH   5  17
ATOM     17  O   UNL     1      -3.307  -4.368   5.840  0.00  0.00    +0.000 OA
ATOM     18  H   UNL     1      -4.043  -5.017   5.716  0.00  0.00    +0.000 HD
ENDBRANCH   5  17
TORSDOF 4
ENDMDL
MODEL 6
REMARK VINA RESULT:      -4.0      4.779      8.009
REMARK  Name = ox1_esm1_f8_ligand
REMARK  5 active torsions:
REMARK  status: ('A' for Active; 'I' for Inactive)
REMARK    1  A    between atoms: C_1  and  O_2
REMARK    2  A    between atoms: O_2  and  C_3
REMARK    3  A    between atoms: C_6  and  C_7
REMARK    4  A    between atoms: C_7  and  C_9
REMARK    5  A    between atoms: C_15  and  O_16
REMARK                            x       y       z     vdW  Elec       q    Type
REMARK                         _______ _______ _______ _____ _____    ______ ____
ROOT
ATOM      1  C   UNL     1      -3.764  -5.577   6.781  0.00  0.00    +0.000 A 
ATOM      2  C   UNL     1      -4.055  -5.555   5.418  0.00  0.00    +0.000 A 
ATOM      3  C   UNL     1      -3.895  -4.386   4.687  0.00  0.00    +0.000 A 
ATOM      4  C   UNL     1      -3.436  -3.229   5.293  0.00  0.00    +0.000 A 
ATOM      5  C   UNL     1      -3.147  -3.239   6.673  0.00  0.00    +0.000 A 
ATOM      6  C   UNL     1      -3.316  -4.418   7.396  0.00  0.00    +0.000 A 
ENDROOT
BRANCH   1   8
ATOM      7  C   UNL     1      -3.392  -6.931   8.769  0.00  0.00    +0.000 C 
ATOM      8  O   UNL     1      -3.928  -6.752   7.453  0.00  0.00    +0.000 OA
ENDBRANCH   1   8
BRANCH   4   9
ATOM      9  C   UNL     1      -3.252  -1.975   4.493  0.00  0.00    +0.000 C 
ATOM     10  O   UNL     1      -3.520  -0.891   5.004  0.00  0.00    +0.000 OA
BRANCH   9  11
ATOM     11  C   UNL     1      -2.772  -2.030   3.080  0.00  0.00    +0.000 A 
ATOM     12  C   UNL     1      -1.524  -2.446   2.788  0.00  0.00    +0.000 A 
ATOM     13  C   UNL     1      -1.023  -2.556   1.502  0.00  0.00    +0.000 A 
ATOM     14  C   UNL     1      -1.823  -2.185   0.448  0.00  0.00    +0.000 A 
ATOM     15  C   UNL     1      -3.110  -1.735   0.708  0.00  0.00    +0.000 A 
ATOM     16  C   UNL     1      -3.570  -1.658   2.022  0.00  0.00    +0.000 A 
ENDBRANCH   9  11
ENDBRANCH   4   9
BRANCH   5  17
ATOM     17  O   UNL     1      -2.710  -2.095   7.275  0.00  0.00    +0.000 OA
ATOM     18  H   UNL     1      -2.758  -2.004   8.259  0.00  0.00    +0.000 HD
ENDBRANCH   5  17
TORSDOF 4
ENDMDL
MODEL 7
REMARK VINA RESULT:      -4.0      4.792      7.214
REMARK  Name = ox1_esm1_f8_ligand
REMARK  5 active torsions:
REMARK  status: ('A' for Active; 'I' for Inactive)
REMARK    1  A    between atoms: C_1  and  O_2
REMARK    2  A    between atoms: O_2  and  C_3
REMARK    3  A    between atoms: C_6  and  C_7
REMARK    4  A    between atoms: C_7  and  C_9
REMARK    5  A    between atoms: C_15  and  O_16
REMARK                            x       y       z     vdW  Elec       q    Type
REMARK                         _______ _______ _______ _____ _____    ______ ____
ROOT
ATOM      1  C   UNL     1      -6.210  -3.467   7.359  0.00  0.00    +0.000 A 
ATOM      2  C   UNL     1      -6.533  -3.345   6.007  0.00  0.00    +0.000 A 
ATOM      3  C   UNL     1      -5.607  -2.831   5.111  0.00  0.00    +0.000 A 
ATOM      4  C   UNL     1      -4.347  -2.443   5.537  0.00  0.00    +0.000 A 
ATOM      5  C   UNL     1      -4.015  -2.556   6.903  0.00  0.00    +0.000 A 
ATOM      6  C   UNL     1      -4.956  -3.068   7.793  0.00  0.00    +0.000 A 
ENDROOT
BRANCH   1   8
ATOM      7  C   UNL     1      -7.403  -5.395   8.243  0.00  0.00    +0.000 C 
ATOM      8  O   UNL     1      -7.152  -3.987   8.198  0.00  0.00    +0.000 OA
ENDBRANCH   1   8
BRANCH   4   9
ATOM      9  C   UNL     1      -3.348  -1.903   4.560  0.00  0.00    +0.000 C 
ATOM     10  O   UNL     1      -3.121  -0.697   4.536  0.00  0.00    +0.000 OA
BRANCH   9  11
ATOM     11  C   UNL     1      -2.644  -2.809   3.603  0.00  0.00    +0.000 A 
ATOM     12  C   UNL     1      -2.771  -4.146   3.694  0.00  0.00    +0.000 A 
ATOM     13  C   UNL     1      -2.179  -5.044   2.822  0.00  0.00    +0.000 A 
ATOM     14  C   UNL     1      -1.375  -4.558   1.819  0.00  0.00    +0.000 A 
ATOM     15  C   UNL     1      -1.206  -3.186   1.701  0.00  0.00    +0.000 A 
ATOM     16  C   UNL     1      -1.838  -2.325   2.597  0.00  0.00    +0.000 A 
ENDBRANCH   9  11
ENDBRANCH   4   9
BRANCH   5  17
ATOM     17  O   UNL     1      -2.781  -2.158   7.328  0.00  0.00    +0.000 OA
ATOM     18  H   UNL     1      -2.668  -1.775   8.234  0.00  0.00    +0.000 HD
ENDBRANCH   5  17
TORSDOF 4
ENDMDL
MODEL 8
REMARK VINA RESULT:      -3.9      3.826      5.575
REMARK  Name = ox1_esm1_f8_ligand
REMARK  5 active torsions:
REMARK  status: ('A' for Active; 'I' for Inactive)
REMARK    1  A    between atoms: C_1  and  O_2
REMARK    2  A    between atoms: O_2  and  C_3
REMARK    3  A    between atoms: C_6  and  C_7
REMARK    4  A    between atoms: C_7  and  C_9
REMARK    5  A    between atoms: C_15  and  O_16
REMARK                            x       y       z     vdW  Elec       q    Type
REMARK                         _______ _______ _______ _____ _____    ______ ____
ROOT
ATOM      1  C   UNL     1      -5.854   0.725   8.728  0.00  0.00    +0.000 A 
ATOM      2  C   UNL     1      -5.106  -0.279   9.342  0.00  0.00    +0.000 A 
ATOM      3  C   UNL     1      -4.409  -1.201   8.574  0.00  0.00    +0.000 A 
ATOM      4  C   UNL     1      -4.434  -1.134   7.191  0.00  0.00    +0.000 A 
ATOM      5  C   UNL     1      -5.195  -0.127   6.561  0.00  0.00    +0.000 A 
ATOM      6  C   UNL     1      -5.894   0.789   7.345  0.00  0.00    +0.000 A 
ENDROOT
BRANCH   1   8
ATOM      7  C   UNL     1      -6.325   1.608  10.947  0.00  0.00    +0.000 C 
ATOM      8  O   UNL     1      -6.514   1.612   9.527  0.00  0.00    +0.000 OA
ENDBRANCH   1   8
BRANCH   4   9
ATOM      9  C   UNL     1      -3.667  -2.125   6.369  0.00  0.00    +0.000 C 
ATOM     10  O   UNL     1      -2.857  -1.719   5.540  0.00  0.00    +0.000 OA
BRANCH   9  11
ATOM     11  C   UNL     1      -3.891  -3.592   6.529  0.00  0.00    +0.000 A 
ATOM     12  C   UNL     1      -4.849  -4.228   5.828  0.00  0.00    +0.000 A 
ATOM     13  C   UNL     1      -5.090  -5.589   5.898  0.00  0.00    +0.000 A 
ATOM     14  C   UNL     1      -4.339  -6.348   6.762  0.00  0.00    +0.000 A 
ATOM     15  C   UNL     1      -3.352  -5.729   7.515  0.00  0.00    +0.000 A 
ATOM     16  C   UNL     1      -3.140  -4.356   7.394  0.00  0.00    +0.000 A 
ENDBRANCH   9  11
ENDBRANCH   4   9
BRANCH   5  17
ATOM     17  O   UNL     1      -5.235  -0.070   5.198  0.00  0.00    +0.000 OA
ATOM     18  H   UNL     1      -5.195   0.805   4.738  0.00  0.00    +0.000 HD
ENDBRANCH   5  17
TORSDOF 4
ENDMDL
MODEL 9
REMARK VINA RESULT:      -3.9      4.385      6.109
REMARK  Name = ox1_esm1_f8_ligand
REMARK  5 active torsions:
REMARK  status: ('A' for Active; 'I' for Inactive)
REMARK    1  A    between atoms: C_1  and  O_2
REMARK    2  A    between atoms: O_2  and  C_3
REMARK    3  A    between atoms: C_6  and  C_7
REMARK    4  A    between atoms: C_7  and  C_9
REMARK    5  A    between atoms: C_15  and  O_16
REMARK                            x       y       z     vdW  Elec       q    Type
REMARK                         _______ _______ _______ _____ _____    ______ ____
ROOT
ATOM      1  C   UNL     1      -5.808  -0.424   7.096  0.00  0.00    +0.000 A 
ATOM      2  C   UNL     1      -6.355  -1.151   6.039  0.00  0.00    +0.000 A 
ATOM      3  C   UNL     1      -5.655  -2.212   5.484  0.00  0.00    +0.000 A 
ATOM      4  C   UNL     1      -4.411  -2.575   5.974  0.00  0.00    +0.000 A 
ATOM      5  C   UNL     1      -3.846  -1.840   7.037  0.00  0.00    +0.000 A 
ATOM      6  C   UNL     1      -4.558  -0.773   7.582  0.00  0.00    +0.000 A 
ENDROOT
BRANCH   1   8
ATOM      7  C   UNL     1      -6.579   0.846   9.024  0.00  0.00    +0.000 C 
ATOM      8  O   UNL     1      -6.540   0.604   7.614  0.00  0.00    +0.000 OA
ENDBRANCH   1   8
BRANCH   4   9
ATOM      9  C   UNL     1      -3.668  -3.732   5.378  0.00  0.00    +0.000 C 
ATOM     10  O   UNL     1      -3.652  -4.806   5.973  0.00  0.00    +0.000 OA
BRANCH   9  11
ATOM     11  C   UNL     1      -2.931  -3.587   4.088  0.00  0.00    +0.000 A 
ATOM     12  C   UNL     1      -2.612  -2.372   3.604  0.00  0.00    +0.000 A 
ATOM     13  C   UNL     1      -1.900  -2.163   2.436  0.00  0.00    +0.000 A 
ATOM     14  C   UNL     1      -1.521  -3.253   1.690  0.00  0.00    +0.000 A 
ATOM     15  C   UNL     1      -1.844  -4.522   2.145  0.00  0.00    +0.000 A 
ATOM     16  C   UNL     1      -2.550  -4.678   3.338  0.00  0.00    +0.000 A 
ENDBRANCH   9  11
ENDBRANCH   4   9
BRANCH   5  17
ATOM     17  O   UNL     1      -2.613  -2.185   7.510  0.00  0.00    +0.000 OA
ATOM     18  H   UNL     1      -1.919  -2.514   6.886  0.00  0.00    +0.000 HD
ENDBRANCH   5  17
TORSDOF 4
ENDMDL
