REMARK  Name = shuffle_control_ligand
REMARK  12 active torsions:
REMARK  status: ('A' for Active; 'I' for Inactive)
REMARK    1  A    between atoms: C_1  and  C_2
REMARK    2  A    between atoms: C_2  and  C_3
REMARK    3  A    between atoms: C_3  and  C_4
REMARK    4  A    between atoms: C_4  and  C_5
REMARK    5  A    between atoms: C_5  and  C_6
REMARK    6  A    between atoms: C_5  and  O_8
REMARK    7  A    between atoms: C_6  and  C_7
REMARK    8  A    between atoms: O_8  and  C_9
REMARK    9  A    between atoms: C_9  and  C_11
REMARK   10  A    between atoms: C_12  and  C_13
REMARK   11  A    between atoms: C_16  and  O_17
REMARK   12  A    between atoms: O_17  and  C_18
REMARK                            x       y       z     vdW  Elec       q    Type
REMARK                         _______ _______ _______ _____ _____    ______ ____
ROOT
ATOM      1  C   UNL     1       7.684  -7.714   1.581  0.00  0.00    +0.000 C 
ATOM      2  O   UNL     1       8.381  -8.453   0.937  0.00  0.00    +0.000 OA
ENDROOT
BRANCH   1   3
ATOM      3  C   UNL     1       6.516  -6.980   1.038  0.00  0.00    +0.000 C 
ATOM      4  C   UNL     1       6.183  -7.084  -0.252  0.00  0.00    +0.000 C 
BRANCH   4   5
ATOM      5  C   UNL     1       5.049  -6.361  -0.875  0.00  0.00    +0.000 A 
ATOM      6  C   UNL     1       4.111  -5.688  -0.137  0.00  0.00    +0.000 A 
ATOM      7  C   UNL     1       3.063  -5.021  -0.763  0.00  0.00    +0.000 A 
ATOM      8  C   UNL     1       2.950  -5.029  -2.128  0.00  0.00    +0.000 A 
ATOM      9  C   UNL     1       3.886  -5.705  -2.873  0.00  0.00    +0.000 A 
ATOM     10  C   UNL     1       4.933  -6.373  -2.249  0.00  0.00    +0.000 A 
BRANCH   8  11
ATOM     11  O   UNL     1       1.950  -4.390  -2.801  0.00  0.00    +0.000 OA
ATOM     12  C   UNL     1       0.951  -3.689  -2.086  0.00  0.00    +0.000 C 
ENDBRANCH   8  11
ENDBRANCH   4   5
ENDBRANCH   1   3
BRANCH   1  13
ATOM     13  O   UNL     1       7.913  -7.484   2.878  0.00  0.00    +0.000 OA
BRANCH  13  14
ATOM     14  C   UNL     1       8.973  -8.139   3.543  0.00  0.00    +0.000 C 
BRANCH  14  15
ATOM     15  C   UNL     1       9.882  -7.115   4.206  0.00  0.00    +0.000 C 
ATOM     16  C   UNL     1      10.121  -5.877   3.413  0.00  0.00    +0.000 C 
ENDBRANCH  14  15
BRANCH  14  17
ATOM     17  C   UNL     1       8.389  -9.041   4.606  0.00  0.00    +0.000 C 
BRANCH  17  18
ATOM     18  C   UNL     1       7.260  -9.894   4.124  0.00  0.00    +0.000 C 
BRANCH  18  20
ATOM     19  C   UNL     1       5.598 -11.658   4.716  0.00  0.00    +0.000 C 
ATOM     20  C   UNL     1       6.772 -10.845   5.185  0.00  0.00    +0.000 C 
ENDBRANCH  18  20
ENDBRANCH  17  18
ENDBRANCH  14  17
ENDBRANCH  13  14
ENDBRANCH   1  13
TORSDOF 9
