MODEL 1
REMARK VINA RESULT:      -4.9      0.000      0.000
REMARK  Name = shuffle_control_ligand
REMARK  12 active torsions:
REMARK  status: ('A' for Active; 'I' for Inactive)
REMARK    1  A    between atoms: C_1  and  C_2
REMARK    2  A    between atoms: C_2  and  C_3
REMARK    3  A    between atoms: C_3  and  C_4
REMARK    4  A    between atoms: C_4  and  C_5
REMARK    5  A    between atoms: C_5  and  C_6
REMARK    6  A    between atoms: C_5  and  O_8
REMARK    7  A    between atoms: C_6  and  C_7
REMARK    8  A    between atoms: O_8  and  C_9
REMARK    9  A    between atoms: C_9  and  C_11
REMARK   10  A    between atoms: C_12  and  C_13
REMARK   11  A    between atoms: C_16  and  O_17
REMARK   12  A    between atoms: O_17  and  C_18
REMARK                            x       y       z     vdW  Elec       q    Type
REMARK                         _______ _______ _______ _____ _____    ______ ____
ROOT
ATOM      1  C   UNL     1       3.266  -5.075  -1.151  0.00  0.00    +0.000 C 
ATOM      2  O   UNL     1       2.276  -5.143  -0.471  0.00  0.00    +0.000 OA
ENDROOT
BRANCH   1   3
ATOM      3  C   UNL     1       4.624  -5.457  -0.694  0.00  0.00    +0.000 C 
ATOM      4  C   UNL     1       4.850  -5.774   0.584  0.00  0.00    +0.000 C 
BRANCH   4   5
ATOM      5  C   UNL     1       6.182  -6.138   1.122  0.00  0.00    +0.000 A 
ATOM      6  C   UNL     1       6.608  -5.742   2.363  0.00  0.00    +0.000 A 
ATOM      7  C   UNL     1       7.866  -6.108   2.830  0.00  0.00    +0.000 A 
ATOM      8  C   UNL     1       8.701  -6.868   2.056  0.00  0.00    +0.000 A 
ATOM      9  C   UNL     1       8.281  -7.266   0.810  0.00  0.00    +0.000 A 
ATOM     10  C   UNL     1       7.025  -6.900   0.341  0.00  0.00    +0.000 A 
BRANCH   8  11
ATOM     11  O   UNL     1       9.943  -7.264   2.459  0.00  0.00    +0.000 OA
ATOM     12  C   UNL     1      10.212  -8.635   2.679  0.00  0.00    +0.000 C 
ENDBRANCH   8  11
ENDBRANCH   4   5
ENDBRANCH   1   3
BRANCH   1  13
ATOM     13  O   UNL     1       3.223  -4.632  -2.412  0.00  0.00    +0.000 OA
BRANCH  13  14
ATOM     14  C   UNL     1       4.138  -5.120  -3.371  0.00  0.00    +0.000 C 
BRANCH  14  15
ATOM     15  C   UNL     1       3.453  -6.134  -4.274  0.00  0.00    +0.000 C 
ATOM     16  C   UNL     1       3.688  -7.560  -3.912  0.00  0.00    +0.000 C 
ENDBRANCH  14  15
BRANCH  14  17
ATOM     17  C   UNL     1       4.619  -3.958  -4.211  0.00  0.00    +0.000 C 
BRANCH  17  18
ATOM     18  C   UNL     1       6.106  -3.812  -4.248  0.00  0.00    +0.000 C 
BRANCH  18  20
ATOM     19  C   UNL     1       8.277  -4.983  -3.868  0.00  0.00    +0.000 C 
ATOM     20  C   UNL     1       6.808  -4.947  -3.550  0.00  0.00    +0.000 C 
ENDBRANCH  18  20
ENDBRANCH  17  18
ENDBRANCH  14  17
ENDBRANCH  13  14
ENDBRANCH   1  13
TORSDOF 9
ENDMDL
MODEL 2
REMARK VINA RESULT:      -4.9      2.167      6.989
REMARK  Name = shuffle_control_ligand
REMARK  12 active torsions:
REMARK  status: ('A' for Active; 'I' for Inactive)
REMARK    1  A    between atoms: C_1  and  C_2
REMARK    2  A    between atoms: C_2  and  C_3
REMARK    3  A    between atoms: C_3  and  C_4
REMARK    4  A    between atoms: C_4  and  C_5
REMARK    5  A    between atoms: C_5  and  C_6
REMARK    6  A    between atoms: C_5  and  O_8
REMARK    7  A    between atoms: C_6  and  C_7
REMARK    8  A    between atoms: O_8  and  C_9
REMARK    9  A    between atoms: C_9  and  C_11
REMARK   10  A    between atoms: C_12  and  C_13
REMARK   11  A    between atoms: C_16  and  O_17
REMARK   12  A    between atoms: O_17  and  C_18
REMARK                            x       y       z     vdW  Elec       q    Type
REMARK                         _______ _______ _______ _____ _____    ______ ____
ROOT
ATOM      1  C   UNL     1       5.265  -5.759   1.593  0.00  0.00    +0.000 C 
ATOM      2  O   UNL     1       5.149  -5.015   2.531  0.00  0.00    +0.000 OA
ENDROOT
BRANCH   1   3
ATOM      3  C   UNL     1       4.941  -5.396   0.192  0.00  0.00    +0.000 C 
ATOM      4  C   UNL     1       5.719  -5.801  -0.816  0.00  0.00    +0.000 C 
BRANCH   4   5
ATOM      5  C   UNL     1       5.478  -5.457  -2.237  0.00  0.00    +0.000 A 
ATOM      6  C   UNL     1       6.494  -5.343  -3.149  0.00  0.00    +0.000 A 
ATOM      7  C   UNL     1       6.223  -5.019  -4.475  0.00  0.00    +0.000 A 
ATOM      8  C   UNL     1       4.935  -4.805  -4.889  0.00  0.00    +0.000 A 
ATOM      9  C   UNL     1       3.912  -4.914  -3.978  0.00  0.00    +0.000 A 
ATOM     10  C   UNL     1       4.182  -5.237  -2.653  0.00  0.00    +0.000 A 
BRANCH   8  11
ATOM     11  O   UNL     1       4.604  -4.490  -6.175  0.00  0.00    +0.000 OA
ATOM     12  C   UNL     1       3.247  -4.317  -6.534  0.00  0.00    +0.000 C 
ENDBRANCH   8  11
ENDBRANCH   4   5
ENDBRANCH   1   3
BRANCH   1  13
ATOM     13  O   UNL     1       5.706  -7.012   1.739  0.00  0.00    +0.000 OA
BRANCH  13  14
ATOM     14  C   UNL     1       6.808  -7.288   2.579  0.00  0.00    +0.000 C 
BRANCH  14  15
ATOM     15  C   UNL     1       6.904  -8.784   2.836  0.00  0.00    +0.000 C 
ATOM     16  C   UNL     1       7.827  -9.522   1.930  0.00  0.00    +0.000 C 
ENDBRANCH  14  15
BRANCH  14  17
ATOM     17  C   UNL     1       8.069  -6.826   1.884  0.00  0.00    +0.000 C 
BRANCH  17  18
ATOM     18  C   UNL     1       8.897  -5.882   2.696  0.00  0.00    +0.000 C 
BRANCH  18  20
ATOM     19  C   UNL     1      10.313  -7.462   4.009  0.00  0.00    +0.000 C 
ATOM     20  C   UNL     1      10.287  -6.409   2.937  0.00  0.00    +0.000 C 
ENDBRANCH  18  20
ENDBRANCH  17  18
ENDBRANCH  14  17
ENDBRANCH  13  14
ENDBRANCH   1  13
TORSDOF 9
ENDMDL
MODEL 3
REMARK VINA RESULT:      -4.8      2.435      3.717
REMARK  Name = shuffle_control_ligand
REMARK  12 active torsions:
REMARK  status: ('A' for Active; 'I' for Inactive)
REMARK    1  A    between atoms: C_1  and  C_2
REMARK    2  A    between atoms: C_2  and  C_3
REMARK    3  A    between atoms: C_3  and  C_4
REMARK    4  A    between atoms: C_4  and  C_5
REMARK    5  A    between atoms: C_5  and  C_6
REMARK    6  A    between atoms: C_5  and  O_8
REMARK    7  A    between atoms: C_6  and  C_7
REMARK    8  A    between atoms: O_8  and  C_9
REMARK    9  A    between atoms: C_9  and  C_11
REMARK   10  A    between atoms: C_12  and  C_13
REMARK   11  A    between atoms: C_16  and  O_17
REMARK   12  A    between atoms: O_17  and  C_18
REMARK                            x       y       z     vdW  Elec       q    Type
REMARK                         _______ _______ _______ _____ _____    ______ ____
ROOT
ATOM      1  C   UNL     1       5.258  -5.480   1.766  0.00  0.00    +0.000 C 
ATOM      2  O   UNL     1       4.639  -4.830   2.566  0.00  0.00    +0.000 OA
ENDROOT
BRANCH   1   3
ATOM      3  C   UNL     1       5.876  -6.796   2.055  0.00  0.00    +0.000 C 
ATOM      4  C   UNL     1       7.017  -6.878   2.746  0.00  0.00    +0.000 C 
BRANCH   4   5
ATOM      5  C   UNL     1       7.711  -8.152   3.050  0.00  0.00    +0.000 A 
ATOM      6  C   UNL     1       9.016  -8.199   3.463  0.00  0.00    +0.000 A 
ATOM      7  C   UNL     1       9.628  -9.417   3.740  0.00  0.00    +0.000 A 
ATOM      8  C   UNL     1       8.936 -10.590   3.601  0.00  0.00    +0.000 A 
ATOM      9  C   UNL     1       7.627 -10.550   3.184  0.00  0.00    +0.000 A 
ATOM     10  C   UNL     1       7.015  -9.334   2.906  0.00  0.00    +0.000 A 
BRANCH   8  11
ATOM     11  O   UNL     1       9.477 -11.815   3.862  0.00  0.00    +0.000 OA
ATOM     12  C   UNL     1      10.473 -12.345   3.009  0.00  0.00    +0.000 C 
ENDBRANCH   8  11
ENDBRANCH   4   5
ENDBRANCH   1   3
BRANCH   1  13
ATOM     13  O   UNL     1       5.448  -5.056   0.512  0.00  0.00    +0.000 OA
BRANCH  13  14
ATOM     14  C   UNL     1       4.970  -5.815  -0.579  0.00  0.00    +0.000 C 
BRANCH  14  15
ATOM     15  C   UNL     1       3.706  -5.181  -1.139  0.00  0.00    +0.000 C 
ATOM     16  C   UNL     1       3.130  -5.867  -2.329  0.00  0.00    +0.000 C 
ENDBRANCH  14  15
BRANCH  14  17
ATOM     17  C   UNL     1       6.031  -5.832  -1.655  0.00  0.00    +0.000 C 
BRANCH  17  18
ATOM     18  C   UNL     1       6.717  -7.151  -1.810  0.00  0.00    +0.000 C 
BRANCH  18  20
ATOM     19  C   UNL     1       8.260  -8.716  -0.629  0.00  0.00    +0.000 C 
ATOM     20  C   UNL     1       7.915  -7.279  -0.906  0.00  0.00    +0.000 C 
ENDBRANCH  18  20
ENDBRANCH  17  18
ENDBRANCH  14  17
ENDBRANCH  13  14
ENDBRANCH   1  13
TORSDOF 9
ENDMDL
MODEL 4
REMARK VINA RESULT:      -4.8      2.570      8.349
REMARK  Name = shuffle_control_ligand
REMARK  12 active torsions:
REMARK  status: ('A' for Active; 'I' for Inactive)
REMARK    1  A    between atoms: C_1  and  C_2
REMARK    2  A    between atoms: C_2  and  C_3
REMARK    3  A    between atoms: C_3  and  C_4
REMARK    4  A    between atoms: C_4  and  C_5
REMARK    5  A    between atoms: C_5  and  C_6
REMARK    6  A    between atoms: C_5  and  O_8
REMARK    7  A    between atoms: C_6  and  C_7
REMARK    8  A    between atoms: O_8  and  C_9
REMARK    9  A    between atoms: C_9  and  C_11
REMARK   10  A    between atoms: C_12  and  C_13
REMARK   11  A    between atoms: C_16  and  O_17
REMARK   12  A    between atoms: O_17  and  C_18
REMARK                            x       y       z     vdW  Elec       q    Type
REMARK                         _______ _______ _______ _____ _____    ______ ____
ROOT
ATOM      1  C   UNL     1      10.938  -7.137   3.919  0.00  0.00    +0.000 C 
ATOM      2  O   UNL     1      11.929  -6.559   3.558  0.00  0.00    +0.000 OA
ENDROOT
BRANCH   1   3
ATOM      3  C   UNL     1       9.562  -6.779   3.502  0.00  0.00    +0.000 C 
ATOM      4  C   UNL     1       9.183  -6.894   2.225  0.00  0.00    +0.000 C 
BRANCH   4   5
ATOM      5  C   UNL     1       7.836  -6.530   1.725  0.00  0.00    +0.000 A 
ATOM      6  C   UNL     1       7.445  -6.759   0.432  0.00  0.00    +0.000 A 
ATOM      7  C   UNL     1       6.170  -6.403   0.005  0.00  0.00    +0.000 A 
ATOM      8  C   UNL     1       5.286  -5.814   0.869  0.00  0.00    +0.000 A 
ATOM      9  C   UNL     1       5.674  -5.579   2.166  0.00  0.00    +0.000 A 
ATOM     10  C   UNL     1       6.948  -5.933   2.595  0.00  0.00    +0.000 A 
BRANCH   8  11
ATOM     11  O   UNL     1       4.021  -5.447   0.513  0.00  0.00    +0.000 OA
ATOM     12  C   UNL     1       3.681  -5.312  -0.853  0.00  0.00    +0.000 C 
ENDBRANCH   8  11
ENDBRANCH   4   5
ENDBRANCH   1   3
BRANCH   1  13
ATOM     13  O   UNL     1      10.997  -8.178   4.755  0.00  0.00    +0.000 OA
BRANCH  13  14
ATOM     14  C   UNL     1      10.567  -9.456   4.335  0.00  0.00    +0.000 C 
BRANCH  14  15
ATOM     15  C   UNL     1      11.770 -10.360   4.108  0.00  0.00    +0.000 C 
ATOM     16  C   UNL     1      12.163 -10.541   2.683  0.00  0.00    +0.000 C 
ENDBRANCH  14  15
BRANCH  14  17
ATOM     17  C   UNL     1       9.700 -10.053   5.420  0.00  0.00    +0.000 C 
BRANCH  17  18
ATOM     18  C   UNL     1       8.238 -10.032   5.107  0.00  0.00    +0.000 C 
BRANCH  18  20
ATOM     19  C   UNL     1       6.717  -9.642   3.169  0.00  0.00    +0.000 C 
ATOM     20  C   UNL     1       7.962 -10.328   3.657  0.00  0.00    +0.000 C 
ENDBRANCH  18  20
ENDBRANCH  17  18
ENDBRANCH  14  17
ENDBRANCH  13  14
ENDBRANCH   1  13
TORSDOF 9
ENDMDL
MODEL 5
REMARK VINA RESULT:      -4.8      2.198      7.187
REMARK  Name = shuffle_control_ligand
REMARK  12 active torsions:
REMARK  status: ('A' for Active; 'I' for Inactive)
REMARK    1  A    between atoms: C_1  and  C_2
REMARK    2  A    between atoms: C_2  and  C_3
REMARK    3  A    between atoms: C_3  and  C_4
REMARK    4  A    between atoms: C_4  and  C_5
REMARK    5  A    between atoms: C_5  and  C_6
REMARK    6  A    between atoms: C_5  and  O_8
REMARK    7  A    between atoms: C_6  and  C_7
REMARK    8  A    between atoms: O_8  and  C_9
REMARK    9  A    between atoms: C_9  and  C_11
REMARK   10  A    between atoms: C_12  and  C_13
REMARK   11  A    between atoms: C_16  and  O_17
REMARK   12  A    between atoms: O_17  and  C_18
REMARK                            x       y       z     vdW  Elec       q    Type
REMARK                         _______ _______ _______ _____ _____    ______ ____
ROOT
ATOM      1  C   UNL     1       5.431  -5.456   2.084  0.00  0.00    +0.000 C 
ATOM      2  O   UNL     1       4.780  -4.720   2.778  0.00  0.00    +0.000 OA
ENDROOT
BRANCH   1   3
ATOM      3  C   UNL     1       5.420  -5.436   0.602  0.00  0.00    +0.000 C 
ATOM      4  C   UNL     1       4.267  -5.443  -0.073  0.00  0.00    +0.000 C 
BRANCH   4   5
ATOM      5  C   UNL     1       4.173  -5.453  -1.552  0.00  0.00    +0.000 A 
ATOM      6  C   UNL     1       2.974  -5.456  -2.214  0.00  0.00    +0.000 A 
ATOM      7  C   UNL     1       2.932  -5.464  -3.604  0.00  0.00    +0.000 A 
ATOM      8  C   UNL     1       4.090  -5.473  -4.335  0.00  0.00    +0.000 A 
ATOM      9  C   UNL     1       5.297  -5.473  -3.677  0.00  0.00    +0.000 A 
ATOM     10  C   UNL     1       5.340  -5.466  -2.287  0.00  0.00    +0.000 A 
BRANCH   8  11
ATOM     11  O   UNL     1       4.116  -5.475  -5.699  0.00  0.00    +0.000 OA
ATOM     12  C   UNL     1       4.477  -4.302  -6.402  0.00  0.00    +0.000 C 
ENDBRANCH   8  11
ENDBRANCH   4   5
ENDBRANCH   1   3
BRANCH   1  13
ATOM     13  O   UNL     1       6.240  -6.382   2.608  0.00  0.00    +0.000 OA
BRANCH  13  14
ATOM     14  C   UNL     1       7.450  -6.721   1.961  0.00  0.00    +0.000 C 
BRANCH  14  15
ATOM     15  C   UNL     1       8.631  -6.182   2.754  0.00  0.00    +0.000 C 
ATOM     16  C   UNL     1       9.881  -6.985   2.649  0.00  0.00    +0.000 C 
ENDBRANCH  14  15
BRANCH  14  17
ATOM     17  C   UNL     1       7.551  -8.227   1.890  0.00  0.00    +0.000 C 
BRANCH  17  18
ATOM     18  C   UNL     1       6.596  -8.942   2.790  0.00  0.00    +0.000 C 
BRANCH  18  20
ATOM     19  C   UNL     1       8.063 -10.932   3.128  0.00  0.00    +0.000 C 
ATOM     20  C   UNL     1       7.305  -9.817   3.791  0.00  0.00    +0.000 C 
ENDBRANCH  18  20
ENDBRANCH  17  18
ENDBRANCH  14  17
ENDBRANCH  13  14
ENDBRANCH   1  13
TORSDOF 9
ENDMDL
MODEL 6
REMARK VINA RESULT:      -4.7      2.007      6.809
REMARK  Name = shuffle_control_ligand
REMARK  12 active torsions:
REMARK  status: ('A' for Active; 'I' for Inactive)
REMARK    1  A    between atoms: C_1  and  C_2
REMARK    2  A    between atoms: C_2  and  C_3
REMARK    3  A    between atoms: C_3  and  C_4
REMARK    4  A    between atoms: C_4  and  C_5
REMARK    5  A    between atoms: C_5  and  C_6
REMARK    6  A    between atoms: C_5  and  O_8
REMARK    7  A    between atoms: C_6  and  C_7
REMARK    8  A    between atoms: O_8  and  C_9
REMARK    9  A    between atoms: C_9  and  C_11
REMARK   10  A    between atoms: C_12  and  C_13
REMARK   11  A    between atoms: C_16  and  O_17
REMARK   12  A    between atoms: O_17  and  C_18
REMARK                            x       y       z     vdW  Elec       q    Type
REMARK                         _______ _______ _______ _____ _____    ______ ____
ROOT
ATOM      1  C   UNL     1       5.394  -5.705   1.481  0.00  0.00    +0.000 C 
ATOM      2  O   UNL     1       5.028  -5.002   2.385  0.00  0.00    +0.000 OA
ENDROOT
BRANCH   1   3
ATOM      3  C   UNL     1       5.054  -5.480   0.055  0.00  0.00    +0.000 C 
ATOM      4  C   UNL     1       3.779  -5.395  -0.338  0.00  0.00    +0.000 C 
BRANCH   4   5
ATOM      5  C   UNL     1       3.359  -5.200  -1.746  0.00  0.00    +0.000 A 
ATOM      6  C   UNL     1       4.254  -4.952  -2.753  0.00  0.00    +0.000 A 
ATOM      7  C   UNL     1       3.816  -4.776  -4.062  0.00  0.00    +0.000 A 
ATOM      8  C   UNL     1       2.482  -4.845  -4.364  0.00  0.00    +0.000 A 
ATOM      9  C   UNL     1       1.579  -5.091  -3.357  0.00  0.00    +0.000 A 
ATOM     10  C   UNL     1       2.015  -5.265  -2.049  0.00  0.00    +0.000 A 
BRANCH   8  11
ATOM     11  O   UNL     1       1.990  -4.688  -5.627  0.00  0.00    +0.000 OA
ATOM     12  C   UNL     1       1.910  -5.799  -6.499  0.00  0.00    +0.000 C 
ENDBRANCH   8  11
ENDBRANCH   4   5
ENDBRANCH   1   3
BRANCH   1  13
ATOM     13  O   UNL     1       6.158  -6.782   1.691  0.00  0.00    +0.000 OA
BRANCH  13  14
ATOM     14  C   UNL     1       7.503  -6.798   1.261  0.00  0.00    +0.000 C 
BRANCH  14  15
ATOM     15  C   UNL     1       8.426  -7.022   2.449  0.00  0.00    +0.000 C 
ATOM     16  C   UNL     1       9.244  -5.842   2.844  0.00  0.00    +0.000 C 
ENDBRANCH  14  15
BRANCH  14  17
ATOM     17  C   UNL     1       7.680  -7.933   0.279  0.00  0.00    +0.000 C 
BRANCH  17  18
ATOM     18  C   UNL     1       8.339  -7.530  -1.001  0.00  0.00    +0.000 C 
BRANCH  18  20
ATOM     19  C   UNL     1       7.752  -6.105  -2.963  0.00  0.00    +0.000 C 
ATOM     20  C   UNL     1       7.339  -7.261  -2.096  0.00  0.00    +0.000 C 
ENDBRANCH  18  20
ENDBRANCH  17  18
ENDBRANCH  14  17
ENDBRANCH  13  14
ENDBRANCH   1  13
TORSDOF 9
ENDMDL
MODEL 7
REMARK VINA RESULT:      -4.7      2.303      7.171
REMARK  Name = shuffle_control_ligand
REMARK  12 active torsions:
REMARK  status: ('A' for Active; 'I' for Inactive)
REMARK    1  A    between atoms: C_1  and  C_2
REMARK    2  A    between atoms: C_2  and  C_3
REMARK    3  A    between atoms: C_3  and  C_4
REMARK    4  A    between atoms: C_4  and  C_5
REMARK    5  A    between atoms: C_5  and  C_6
REMARK    6  A    between atoms: C_5  and  O_8
REMARK    7  A    between atoms: C_6  and  C_7
REMARK    8  A    between atoms: O_8  and  C_9
REMARK    9  A    between atoms: C_9  and  C_11
REMARK   10  A    between atoms: C_12  and  C_13
REMARK   11  A    between atoms: C_16  and  O_17
REMARK   12  A    between atoms: O_17  and  C_18
REMARK                            x       y       z     vdW  Elec       q    Type
REMARK                         _______ _______ _______ _____ _____    ______ ____
ROOT
ATOM      1  C   UNL     1       5.861  -5.596   1.653  0.00  0.00    +0.000 C 
ATOM      2  O   UNL     1       5.397  -5.066   2.627  0.00  0.00    +0.000 OA
ENDROOT
BRANCH   1   3
ATOM      3  C   UNL     1       5.272  -5.514   0.295  0.00  0.00    +0.000 C 
ATOM      4  C   UNL     1       3.953  -5.378   0.129  0.00  0.00    +0.000 C 
BRANCH   4   5
ATOM      5  C   UNL     1       3.287  -5.318  -1.193  0.00  0.00    +0.000 A 
ATOM      6  C   UNL     1       1.925  -5.237  -1.329  0.00  0.00    +0.000 A 
ATOM      7  C   UNL     1       1.341  -5.181  -2.590  0.00  0.00    +0.000 A 
ATOM      8  C   UNL     1       2.118  -5.209  -3.718  0.00  0.00    +0.000 A 
ATOM      9  C   UNL     1       3.483  -5.293  -3.588  0.00  0.00    +0.000 A 
ATOM     10  C   UNL     1       4.068  -5.350  -2.329  0.00  0.00    +0.000 A 
BRANCH   8  11
ATOM     11  O   UNL     1       1.606  -5.151  -4.981  0.00  0.00    +0.000 OA
ATOM     12  C   UNL     1       2.474  -5.187  -6.098  0.00  0.00    +0.000 C 
ENDBRANCH   8  11
ENDBRANCH   4   5
ENDBRANCH   1   3
BRANCH   1  13
ATOM     13  O   UNL     1       6.979  -6.327   1.715  0.00  0.00    +0.000 OA
BRANCH  13  14
ATOM     14  C   UNL     1       7.214  -7.180   2.816  0.00  0.00    +0.000 C 
BRANCH  14  15
ATOM     15  C   UNL     1       6.841  -8.610   2.455  0.00  0.00    +0.000 C 
ATOM     16  C   UNL     1       7.786  -9.293   1.528  0.00  0.00    +0.000 C 
ENDBRANCH  14  15
BRANCH  14  17
ATOM     17  C   UNL     1       8.685  -7.126   3.160  0.00  0.00    +0.000 C 
BRANCH  17  18
ATOM     18  C   UNL     1       9.383  -5.906   2.650  0.00  0.00    +0.000 C 
BRANCH  18  20
ATOM     19  C   UNL     1      11.127  -7.658   2.314  0.00  0.00    +0.000 C 
ATOM     20  C   UNL     1      10.806  -6.191   2.249  0.00  0.00    +0.000 C 
ENDBRANCH  18  20
ENDBRANCH  17  18
ENDBRANCH  14  17
ENDBRANCH  13  14
ENDBRANCH   1  13
TORSDOF 9
ENDMDL
MODEL 8
REMARK VINA RESULT:      -4.6      1.961      6.946
REMARK  Name = shuffle_control_ligand
REMARK  12 active torsions:
REMARK  status: ('A' for Active; 'I' for Inactive)
REMARK    1  A    between atoms: C_1  and  C_2
REMARK    2  A    between atoms: C_2  and  C_3
REMARK    3  A    between atoms: C_3  and  C_4
REMARK    4  A    between atoms: C_4  and  C_5
REMARK    5  A    between atoms: C_5  and  C_6
REMARK    6  A    between atoms: C_5  and  O_8
REMARK    7  A    between atoms: C_6  and  C_7
REMARK    8  A    between atoms: O_8  and  C_9
REMARK    9  A    between atoms: C_9  and  C_11
REMARK   10  A    between atoms: C_12  and  C_13
REMARK   11  A    between atoms: C_16  and  O_17
REMARK   12  A    between atoms: O_17  and  C_18
REMARK                            x       y       z     vdW  Elec       q    Type
REMARK                         _______ _______ _______ _____ _____    ______ ____
ROOT
ATOM      1  C   UNL     1       7.430  -6.328   2.636  0.00  0.00    +0.000 C 
ATOM      2  O   UNL     1       8.408  -5.852   3.151  0.00  0.00    +0.000 OA
ENDROOT
BRANCH   1   3
ATOM      3  C   UNL     1       6.673  -5.692   1.532  0.00  0.00    +0.000 C 
ATOM      4  C   UNL     1       6.089  -6.435   0.587  0.00  0.00    +0.000 C 
BRANCH   4   5
ATOM      5  C   UNL     1       5.340  -5.874  -0.562  0.00  0.00    +0.000 A 
ATOM      6  C   UNL     1       5.877  -5.788  -1.820  0.00  0.00    +0.000 A 
ATOM      7  C   UNL     1       5.138  -5.256  -2.871  0.00  0.00    +0.000 A 
ATOM      8  C   UNL     1       3.861  -4.805  -2.665  0.00  0.00    +0.000 A 
ATOM      9  C   UNL     1       3.318  -4.886  -1.405  0.00  0.00    +0.000 A 
ATOM     10  C   UNL     1       4.055  -5.417  -0.354  0.00  0.00    +0.000 A 
BRANCH   8  11
ATOM     11  O   UNL     1       3.083  -4.279  -3.654  0.00  0.00    +0.000 OA
ATOM     12  C   UNL     1       2.147  -5.096  -4.330  0.00  0.00    +0.000 C 
ENDBRANCH   8  11
ENDBRANCH   4   5
ENDBRANCH   1   3
BRANCH   1  13
ATOM     13  O   UNL     1       6.929  -7.503   3.030  0.00  0.00    +0.000 OA
BRANCH  13  14
ATOM     14  C   UNL     1       7.762  -8.640   3.122  0.00  0.00    +0.000 C 
BRANCH  14  15
ATOM     15  C   UNL     1       7.280  -9.549   4.242  0.00  0.00    +0.000 C 
ATOM     16  C   UNL     1       7.390 -11.008   3.962  0.00  0.00    +0.000 C 
ENDBRANCH  14  15
BRANCH  14  17
ATOM     17  C   UNL     1       7.694  -9.392   1.812  0.00  0.00    +0.000 C 
BRANCH  17  18
ATOM     18  C   UNL     1       8.914  -9.243   0.962  0.00  0.00    +0.000 C 
BRANCH  18  20
ATOM     19  C   UNL     1       9.257  -7.614  -0.896  0.00  0.00    +0.000 C 
ATOM     20  C   UNL     1       8.576  -8.881  -0.460  0.00  0.00    +0.000 C 
ENDBRANCH  18  20
ENDBRANCH  17  18
ENDBRANCH  14  17
ENDBRANCH  13  14
ENDBRANCH   1  13
TORSDOF 9
ENDMDL
MODEL 9
REMARK VINA RESULT:      -4.6      2.165      7.557
REMARK  Name = shuffle_control_ligand
REMARK  12 active torsions:
REMARK  status: ('A' for Active; 'I' for Inactive)
REMARK    1  A    between atoms: C_1  and  C_2
REMARK    2  A    between atoms: C_2  and  C_3
REMARK    3  A    between atoms: C_3  and  C_4
REMARK    4  A    between atoms: C_4  and  C_5
REMARK    5  A    between atoms: C_5  and  C_6
REMARK    6  A    between atoms: C_5  and  O_8
REMARK    7  A    between atoms: C_6  and  C_7
REMARK    8  A    between atoms: O_8  and  C_9
REMARK    9  A    between atoms: C_9  and  C_11
REMARK   10  A    between atoms: C_12  and  C_13
REMARK   11  A    between atoms: C_16  and  O_17
REMARK   12  A    between atoms: O_17  and  C_18
REMARK                            x       y       z     vdW  Elec       q    Type
REMARK                         _______ _______ _______ _____ _____    ______ ____
ROOT
ATOM      1  C   UNL     1       9.563  -9.300   1.237  0.00  0.00    +0.000 C 
ATOM      2  O   UNL     1      10.670  -9.322   0.767  0.00  0.00    +0.000 OA
ENDROOT
BRANCH   1   3
ATOM      3  C   UNL     1       8.383  -8.694   0.574  0.00  0.00    +0.000 C 
ATOM      4  C   UNL     1       8.097  -7.399   0.738  0.00  0.00    +0.000 C 
BRANCH   4   5
ATOM      5  C   UNL     1       6.923  -6.728   0.133  0.00  0.00    +0.000 A 
ATOM      6  C   UNL     1       6.723  -6.675  -1.221  0.00  0.00    +0.000 A 
ATOM      7  C   UNL     1       5.605  -6.035  -1.747  0.00  0.00    +0.000 A 
ATOM      8  C   UNL     1       4.688  -5.445  -0.919  0.00  0.00    +0.000 A 
ATOM      9  C   UNL     1       4.885  -5.492   0.440  0.00  0.00    +0.000 A 
ATOM     10  C   UNL     1       6.002  -6.130   0.967  0.00  0.00    +0.000 A 
BRANCH   8  11
ATOM     11  O   UNL     1       3.570  -4.808  -1.373  0.00  0.00    +0.000 OA
ATOM     12  C   UNL     1       2.288  -5.301  -1.034  0.00  0.00    +0.000 C 
ENDBRANCH   8  11
ENDBRANCH   4   5
ENDBRANCH   1   3
BRANCH   1  13
ATOM     13  O   UNL     1       9.296  -9.834   2.434  0.00  0.00    +0.000 OA
BRANCH  13  14
ATOM     14  C   UNL     1       9.023  -9.001   3.542  0.00  0.00    +0.000 C 
BRANCH  14  15
ATOM     15  C   UNL     1       7.884  -9.586   4.363  0.00  0.00    +0.000 C 
ATOM     16  C   UNL     1       6.718 -10.067   3.570  0.00  0.00    +0.000 C 
ENDBRANCH  14  15
BRANCH  14  17
ATOM     17  C   UNL     1      10.263  -8.926   4.403  0.00  0.00    +0.000 C 
BRANCH  17  18
ATOM     18  C   UNL     1      11.103  -7.714   4.153  0.00  0.00    +0.000 C 
BRANCH  18  20
ATOM     19  C   UNL     1      10.552  -5.698   2.791  0.00  0.00    +0.000 C 
ATOM     20  C   UNL     1      10.276  -6.459   4.057  0.00  0.00    +0.000 C 
ENDBRANCH  18  20
ENDBRANCH  17  18
ENDBRANCH  14  17
ENDBRANCH  13  14
ENDBRANCH   1  13
TORSDOF 9
ENDMDL
