MODEL 1
REMARK VINA RESULT:      -5.6      0.000      0.000
REMARK  Name = orig_f12_ligand
REMARK  12 active torsions:
REMARK  status: ('A' for Active; 'I' for Inactive)
REMARK    1  A    between atoms: C_1  and  C_2
REMARK    2  A    between atoms: C_2  and  C_3
REMARK    3  A    between atoms: C_3  and  C_4
REMARK    4  A    between atoms: C_4  and  C_5
REMARK    5  A    between atoms: C_5  and  C_6
REMARK    6  A    between atoms: C_5  and  O_8
REMARK    7  A    between atoms: C_6  and  C_7
REMARK    8  A    between atoms: O_8  and  C_9
REMARK    9  A    between atoms: C_9  and  C_11
REMARK   10  A    between atoms: C_12  and  C_13
REMARK   11  A    between atoms: C_16  and  O_17
REMARK   12  A    between atoms: O_17  and  C_18
REMARK                            x       y       z     vdW  Elec       q    Type
REMARK                         _______ _______ _______ _____ _____    ______ ____
ROOT
ATOM      1  C   UNL     1       0.683  -1.492   6.386  0.00  0.00    +0.000 C 
ATOM      2  O   UNL     1       0.243  -2.620   6.327  0.00  0.00    +0.000 OA
ENDROOT
BRANCH   1   3
ATOM      3  C   UNL     1       0.458  -0.569   7.505  0.00  0.00    +0.000 C 
ATOM      4  C   UNL     1       1.269  -0.623   8.570  0.00  0.00    +0.000 C 
BRANCH   4   5
ATOM      5  C   UNL     1       1.038   0.186   9.780  0.00  0.00    +0.000 A 
ATOM      6  C   UNL     1       1.741   1.342  10.032  0.00  0.00    +0.000 A 
ATOM      7  C   UNL     1       1.473   2.097  11.162  0.00  0.00    +0.000 A 
ATOM      8  C   UNL     1       0.508   1.689  12.044  0.00  0.00    +0.000 A 
ATOM      9  C   UNL     1      -0.205   0.531  11.797  0.00  0.00    +0.000 A 
ATOM     10  C   UNL     1       0.075  -0.227  10.667  0.00  0.00    +0.000 A 
BRANCH   8  11
ATOM     11  O   UNL     1       0.189   2.402  13.165  0.00  0.00    +0.000 OA
ATOM     12  C   UNL     1       0.179   3.823  13.120  0.00  0.00    +0.000 C 
ENDBRANCH   8  11
ENDBRANCH   4   5
ENDBRANCH   1   3
BRANCH   1  13
ATOM     13  O   UNL     1       1.386  -0.942   5.406  0.00  0.00    +0.000 OA
BRANCH  13  14
ATOM     14  C   UNL     1       2.519  -1.614   4.913  0.00  0.00    +0.000 C 
BRANCH  14  15
ATOM     15  C   UNL     1       2.629  -1.399   3.412  0.00  0.00    +0.000 C 
ATOM     16  C   UNL     1       1.386  -1.756   2.618  0.00  0.00    +0.000 C 
ENDBRANCH  14  15
BRANCH  14  17
ATOM     17  C   UNL     1       3.743  -1.085   5.628  0.00  0.00    +0.000 C 
BRANCH  17  18
ATOM     18  C   UNL     1       4.006   0.367   5.388  0.00  0.00    +0.000 C 
BRANCH  18  20
ATOM     19  C   UNL     1       4.817   0.474   7.745  0.00  0.00    +0.000 C 
ATOM     20  C   UNL     1       4.008   1.154   6.666  0.00  0.00    +0.000 C 
ENDBRANCH  18  20
ENDBRANCH  17  18
ENDBRANCH  14  17
ENDBRANCH  13  14
ENDBRANCH   1  13
TORSDOF 9
ENDMDL
MODEL 2
REMARK VINA RESULT:      -5.5      3.116      4.866
REMARK  Name = orig_f12_ligand
REMARK  12 active torsions:
REMARK  status: ('A' for Active; 'I' for Inactive)
REMARK    1  A    between atoms: C_1  and  C_2
REMARK    2  A    between atoms: C_2  and  C_3
REMARK    3  A    between atoms: C_3  and  C_4
REMARK    4  A    between atoms: C_4  and  C_5
REMARK    5  A    between atoms: C_5  and  C_6
REMARK    6  A    between atoms: C_5  and  O_8
REMARK    7  A    between atoms: C_6  and  C_7
REMARK    8  A    between atoms: O_8  and  C_9
REMARK    9  A    between atoms: C_9  and  C_11
REMARK   10  A    between atoms: C_12  and  C_13
REMARK   11  A    between atoms: C_16  and  O_17
REMARK   12  A    between atoms: O_17  and  C_18
REMARK                            x       y       z     vdW  Elec       q    Type
REMARK                         _______ _______ _______ _____ _____    ______ ____
ROOT
ATOM      1  C   UNL     1       1.952  -1.211   3.610  0.00  0.00    +0.000 C 
ATOM      2  O   UNL     1       1.812  -1.045   2.418  0.00  0.00    +0.000 OA
ENDROOT
BRANCH   1   3
ATOM      3  C   UNL     1       2.778  -0.361   4.476  0.00  0.00    +0.000 C 
ATOM      4  C   UNL     1       3.590  -0.934   5.373  0.00  0.00    +0.000 C 
BRANCH   4   5
ATOM      5  C   UNL     1       4.360  -0.151   6.357  0.00  0.00    +0.000 A 
ATOM      6  C   UNL     1       5.139  -0.751   7.321  0.00  0.00    +0.000 A 
ATOM      7  C   UNL     1       5.878   0.016   8.206  0.00  0.00    +0.000 A 
ATOM      8  C   UNL     1       5.830   1.383   8.132  0.00  0.00    +0.000 A 
ATOM      9  C   UNL     1       5.053   1.994   7.165  0.00  0.00    +0.000 A 
ATOM     10  C   UNL     1       4.306   1.219   6.286  0.00  0.00    +0.000 A 
BRANCH   8  11
ATOM     11  O   UNL     1       6.550   2.189   8.967  0.00  0.00    +0.000 OA
ATOM     12  C   UNL     1       5.991   3.415   9.422  0.00  0.00    +0.000 C 
ENDBRANCH   8  11
ENDBRANCH   4   5
ENDBRANCH   1   3
BRANCH   1  13
ATOM     13  O   UNL     1       1.406  -2.225   4.265  0.00  0.00    +0.000 OA
BRANCH  13  14
ATOM     14  C   UNL     1       0.119  -2.075   4.814  0.00  0.00    +0.000 C 
BRANCH  14  15
ATOM     15  C   UNL     1      -0.788  -3.181   4.300  0.00  0.00    +0.000 C 
ATOM     16  C   UNL     1      -0.289  -3.900   3.060  0.00  0.00    +0.000 C 
ENDBRANCH  14  15
BRANCH  14  17
ATOM     17  C   UNL     1       0.230  -2.120   6.322  0.00  0.00    +0.000 C 
BRANCH  17  18
ATOM     18  C   UNL     1       0.157  -0.779   6.977  0.00  0.00    +0.000 C 
BRANCH  18  20
ATOM     19  C   UNL     1       1.745  -2.004   8.462  0.00  0.00    +0.000 C 
ATOM     20  C   UNL     1       1.076  -0.684   8.161  0.00  0.00    +0.000 C 
ENDBRANCH  18  20
ENDBRANCH  17  18
ENDBRANCH  14  17
ENDBRANCH  13  14
ENDBRANCH   1  13
TORSDOF 9
ENDMDL
MODEL 3
REMARK VINA RESULT:      -5.5      2.767      4.165
REMARK  Name = orig_f12_ligand
REMARK  12 active torsions:
REMARK  status: ('A' for Active; 'I' for Inactive)
REMARK    1  A    between atoms: C_1  and  C_2
REMARK    2  A    between atoms: C_2  and  C_3
REMARK    3  A    between atoms: C_3  and  C_4
REMARK    4  A    between atoms: C_4  and  C_5
REMARK    5  A    between atoms: C_5  and  C_6
REMARK    6  A    between atoms: C_5  and  O_8
REMARK    7  A    between atoms: C_6  and  C_7
REMARK    8  A    between atoms: O_8  and  C_9
REMARK    9  A    between atoms: C_9  and  C_11
REMARK   10  A    between atoms: C_12  and  C_13
REMARK   11  A    between atoms: C_16  and  O_17
REMARK   12  A    between atoms: O_17  and  C_18
REMARK                            x       y       z     vdW  Elec       q    Type
REMARK                         _______ _______ _______ _____ _____    ______ ____
ROOT
ATOM      1  C   UNL     1       0.171  -0.417   7.055  0.00  0.00    +0.000 C 
ATOM      2  O   UNL     1      -0.771  -0.896   7.649  0.00  0.00    +0.000 OA
ENDROOT
BRANCH   1   3
ATOM      3  C   UNL     1       1.344   0.184   7.702  0.00  0.00    +0.000 C 
ATOM      4  C   UNL     1       1.778   1.381   7.288  0.00  0.00    +0.000 C 
BRANCH   4   5
ATOM      5  C   UNL     1       3.014   1.996   7.804  0.00  0.00    +0.000 A 
ATOM      6  C   UNL     1       3.192   2.270   9.141  0.00  0.00    +0.000 A 
ATOM      7  C   UNL     1       4.382   2.814   9.596  0.00  0.00    +0.000 A 
ATOM      8  C   UNL     1       5.389   3.093   8.711  0.00  0.00    +0.000 A 
ATOM      9  C   UNL     1       5.220   2.818   7.367  0.00  0.00    +0.000 A 
ATOM     10  C   UNL     1       4.021   2.281   6.915  0.00  0.00    +0.000 A 
BRANCH   8  11
ATOM     11  O   UNL     1       6.589   3.614   9.104  0.00  0.00    +0.000 OA
ATOM     12  C   UNL     1       6.828   5.011   8.981  0.00  0.00    +0.000 C 
ENDBRANCH   8  11
ENDBRANCH   4   5
ENDBRANCH   1   3
BRANCH   1  13
ATOM     13  O   UNL     1       0.223  -0.337   5.733  0.00  0.00    +0.000 OA
BRANCH  13  14
ATOM     14  C   UNL     1       0.638  -1.460   4.993  0.00  0.00    +0.000 C 
BRANCH  14  15
ATOM     15  C   UNL     1      -0.551  -2.370   4.735  0.00  0.00    +0.000 C 
ATOM     16  C   UNL     1      -0.400  -3.307   3.551  0.00  0.00    +0.000 C 
ENDBRANCH  14  15
BRANCH  14  17
ATOM     17  C   UNL     1       1.248  -0.982   3.693  0.00  0.00    +0.000 C 
BRANCH  17  18
ATOM     18  C   UNL     1       2.712  -1.254   3.573  0.00  0.00    +0.000 C 
BRANCH  18  20
ATOM     19  C   UNL     1       4.170  -0.988   5.581  0.00  0.00    +0.000 C 
ATOM     20  C   UNL     1       3.528  -0.301   4.399  0.00  0.00    +0.000 C 
ENDBRANCH  18  20
ENDBRANCH  17  18
ENDBRANCH  14  17
ENDBRANCH  13  14
ENDBRANCH   1  13
TORSDOF 9
ENDMDL
MODEL 4
REMARK VINA RESULT:      -5.4      2.786      7.016
REMARK  Name = orig_f12_ligand
REMARK  12 active torsions:
REMARK  status: ('A' for Active; 'I' for Inactive)
REMARK    1  A    between atoms: C_1  and  C_2
REMARK    2  A    between atoms: C_2  and  C_3
REMARK    3  A    between atoms: C_3  and  C_4
REMARK    4  A    between atoms: C_4  and  C_5
REMARK    5  A    between atoms: C_5  and  C_6
REMARK    6  A    between atoms: C_5  and  O_8
REMARK    7  A    between atoms: C_6  and  C_7
REMARK    8  A    between atoms: O_8  and  C_9
REMARK    9  A    between atoms: C_9  and  C_11
REMARK   10  A    between atoms: C_12  and  C_13
REMARK   11  A    between atoms: C_16  and  O_17
REMARK   12  A    between atoms: O_17  and  C_18
REMARK                            x       y       z     vdW  Elec       q    Type
REMARK                         _______ _______ _______ _____ _____    ______ ____
ROOT
ATOM      1  C   UNL     1       5.824   0.017   8.081  0.00  0.00    +0.000 C 
ATOM      2  O   UNL     1       6.592  -0.526   8.845  0.00  0.00    +0.000 OA
ENDROOT
BRANCH   1   3
ATOM      3  C   UNL     1       4.738  -0.667   7.368  0.00  0.00    +0.000 C 
ATOM      4  C   UNL     1       4.376  -0.231   6.154  0.00  0.00    +0.000 C 
BRANCH   4   5
ATOM      5  C   UNL     1       3.222  -0.787   5.427  0.00  0.00    +0.000 A 
ATOM      6  C   UNL     1       2.013  -1.023   6.042  0.00  0.00    +0.000 A 
ATOM      7  C   UNL     1       0.938  -1.511   5.319  0.00  0.00    +0.000 A 
ATOM      8  C   UNL     1       1.075  -1.772   3.981  0.00  0.00    +0.000 A 
ATOM      9  C   UNL     1       2.284  -1.536   3.354  0.00  0.00    +0.000 A 
ATOM     10  C   UNL     1       3.362  -1.055   4.087  0.00  0.00    +0.000 A 
BRANCH   8  11
ATOM     11  O   UNL     1       0.045  -2.238   3.215  0.00  0.00    +0.000 OA
ATOM     12  C   UNL     1      -0.553  -3.492   3.521  0.00  0.00    +0.000 C 
ENDBRANCH   8  11
ENDBRANCH   4   5
ENDBRANCH   1   3
BRANCH   1  13
ATOM     13  O   UNL     1       5.912   1.301   7.763  0.00  0.00    +0.000 OA
BRANCH  13  14
ATOM     14  C   UNL     1       5.354   2.262   8.625  0.00  0.00    +0.000 C 
BRANCH  14  15
ATOM     15  C   UNL     1       6.457   3.146   9.186  0.00  0.00    +0.000 C 
ATOM     16  C   UNL     1       6.653   4.466   8.463  0.00  0.00    +0.000 C 
ENDBRANCH  14  15
BRANCH  14  17
ATOM     17  C   UNL     1       4.346   3.079   7.848  0.00  0.00    +0.000 C 
BRANCH  17  18
ATOM     18  C   UNL     1       2.944   2.572   7.952  0.00  0.00    +0.000 C 
BRANCH  18  20
ATOM     19  C   UNL     1       1.861   0.772   9.299  0.00  0.00    +0.000 C 
ATOM     20  C   UNL     1       2.632   2.070   9.333  0.00  0.00    +0.000 C 
ENDBRANCH  18  20
ENDBRANCH  17  18
ENDBRANCH  14  17
ENDBRANCH  13  14
ENDBRANCH   1  13
TORSDOF 9
ENDMDL
MODEL 5
REMARK VINA RESULT:      -5.2      2.098      2.392
REMARK  Name = orig_f12_ligand
REMARK  12 active torsions:
REMARK  status: ('A' for Active; 'I' for Inactive)
REMARK    1  A    between atoms: C_1  and  C_2
REMARK    2  A    between atoms: C_2  and  C_3
REMARK    3  A    between atoms: C_3  and  C_4
REMARK    4  A    between atoms: C_4  and  C_5
REMARK    5  A    between atoms: C_5  and  C_6
REMARK    6  A    between atoms: C_5  and  O_8
REMARK    7  A    between atoms: C_6  and  C_7
REMARK    8  A    between atoms: O_8  and  C_9
REMARK    9  A    between atoms: C_9  and  C_11
REMARK   10  A    between atoms: C_12  and  C_13
REMARK   11  A    between atoms: C_16  and  O_17
REMARK   12  A    between atoms: O_17  and  C_18
REMARK                            x       y       z     vdW  Elec       q    Type
REMARK                         _______ _______ _______ _____ _____    ______ ____
ROOT
ATOM      1  C   UNL     1       0.206  -2.177   5.629  0.00  0.00    +0.000 C 
ATOM      2  O   UNL     1      -0.523  -2.941   5.033  0.00  0.00    +0.000 OA
ENDROOT
BRANCH   1   3
ATOM      3  C   UNL     1       0.409  -2.186   7.083  0.00  0.00    +0.000 C 
ATOM      4  C   UNL     1      -0.490  -1.585   7.872  0.00  0.00    +0.000 C 
BRANCH   4   5
ATOM      5  C   UNL     1      -0.298  -1.447   9.327  0.00  0.00    +0.000 A 
ATOM      6  C   UNL     1       0.804  -1.963   9.972  0.00  0.00    +0.000 A 
ATOM      7  C   UNL     1       0.971  -1.783  11.335  0.00  0.00    +0.000 A 
ATOM      8  C   UNL     1       0.030  -1.094  12.054  0.00  0.00    +0.000 A 
ATOM      9  C   UNL     1      -1.078  -0.570  11.414  0.00  0.00    +0.000 A 
ATOM     10  C   UNL     1      -1.244  -0.762  10.048  0.00  0.00    +0.000 A 
BRANCH   8  11
ATOM     11  O   UNL     1       0.150  -0.872  13.396  0.00  0.00    +0.000 OA
ATOM     12  C   UNL     1      -0.482  -1.751  14.318  0.00  0.00    +0.000 C 
ENDBRANCH   8  11
ENDBRANCH   4   5
ENDBRANCH   1   3
BRANCH   1  13
ATOM     13  O   UNL     1       0.872  -1.202   5.028  0.00  0.00    +0.000 OA
BRANCH  13  14
ATOM     14  C   UNL     1       2.265  -1.320   4.866  0.00  0.00    +0.000 C 
BRANCH  14  15
ATOM     15  C   UNL     1       2.589  -1.596   3.406  0.00  0.00    +0.000 C 
ATOM     16  C   UNL     1       1.422  -1.444   2.449  0.00  0.00    +0.000 C 
ENDBRANCH  14  15
BRANCH  14  17
ATOM     17  C   UNL     1       2.915  -0.036   5.333  0.00  0.00    +0.000 C 
BRANCH  17  18
ATOM     18  C   UNL     1       3.823  -0.208   6.507  0.00  0.00    +0.000 C 
BRANCH  18  20
ATOM     19  C   UNL     1       2.067   1.158   7.637  0.00  0.00    +0.000 C 
ATOM     20  C   UNL     1       3.126   0.094   7.803  0.00  0.00    +0.000 C 
ENDBRANCH  18  20
ENDBRANCH  17  18
ENDBRANCH  14  17
ENDBRANCH  13  14
ENDBRANCH   1  13
TORSDOF 9
ENDMDL
MODEL 6
REMARK VINA RESULT:      -5.1      2.647      6.356
REMARK  Name = orig_f12_ligand
REMARK  12 active torsions:
REMARK  status: ('A' for Active; 'I' for Inactive)
REMARK    1  A    between atoms: C_1  and  C_2
REMARK    2  A    between atoms: C_2  and  C_3
REMARK    3  A    between atoms: C_3  and  C_4
REMARK    4  A    between atoms: C_4  and  C_5
REMARK    5  A    between atoms: C_5  and  C_6
REMARK    6  A    between atoms: C_5  and  O_8
REMARK    7  A    between atoms: C_6  and  C_7
REMARK    8  A    between atoms: O_8  and  C_9
REMARK    9  A    between atoms: C_9  and  C_11
REMARK   10  A    between atoms: C_12  and  C_13
REMARK   11  A    between atoms: C_16  and  O_17
REMARK   12  A    between atoms: O_17  and  C_18
REMARK                            x       y       z     vdW  Elec       q    Type
REMARK                         _______ _______ _______ _____ _____    ______ ____
ROOT
ATOM      1  C   UNL     1       2.578   2.019   8.915  0.00  0.00    +0.000 C 
ATOM      2  O   UNL     1       1.855   2.247   9.860  0.00  0.00    +0.000 OA
ENDROOT
BRANCH   1   3
ATOM      3  C   UNL     1       2.135   1.401   7.659  0.00  0.00    +0.000 C 
ATOM      4  C   UNL     1       1.370   0.303   7.704  0.00  0.00    +0.000 C 
BRANCH   4   5
ATOM      5  C   UNL     1       0.984  -0.442   6.493  0.00  0.00    +0.000 A 
ATOM      6  C   UNL     1       1.861  -0.654   5.453  0.00  0.00    +0.000 A 
ATOM      7  C   UNL     1       1.476  -1.391   4.346  0.00  0.00    +0.000 A 
ATOM      8  C   UNL     1       0.210  -1.908   4.275  0.00  0.00    +0.000 A 
ATOM      9  C   UNL     1      -0.677  -1.703   5.315  0.00  0.00    +0.000 A 
ATOM     10  C   UNL     1      -0.288  -0.955   6.420  0.00  0.00    +0.000 A 
BRANCH   8  11
ATOM     11  O   UNL     1      -0.220  -2.656   3.216  0.00  0.00    +0.000 OA
ATOM     12  C   UNL     1      -0.636  -4.000   3.422  0.00  0.00    +0.000 C 
ENDBRANCH   8  11
ENDBRANCH   4   5
ENDBRANCH   1   3
BRANCH   1  13
ATOM     13  O   UNL     1       3.881   2.262   8.930  0.00  0.00    +0.000 OA
BRANCH  13  14
ATOM     14  C   UNL     1       4.657   1.919   7.808  0.00  0.00    +0.000 C 
BRANCH  14  15
ATOM     15  C   UNL     1       5.568   3.080   7.442  0.00  0.00    +0.000 C 
ATOM     16  C   UNL     1       6.164   3.827   8.621  0.00  0.00    +0.000 C 
ENDBRANCH  14  15
BRANCH  14  17
ATOM     17  C   UNL     1       5.462   0.681   8.138  0.00  0.00    +0.000 C 
BRANCH  17  18
ATOM     18  C   UNL     1       5.156  -0.493   7.266  0.00  0.00    +0.000 C 
BRANCH  18  20
ATOM     19  C   UNL     1       4.286  -1.276   9.469  0.00  0.00    +0.000 C 
ATOM     20  C   UNL     1       4.666  -1.669   8.061  0.00  0.00    +0.000 C 
ENDBRANCH  18  20
ENDBRANCH  17  18
ENDBRANCH  14  17
ENDBRANCH  13  14
ENDBRANCH   1  13
TORSDOF 9
ENDMDL
MODEL 7
REMARK VINA RESULT:      -5.1      1.591      2.234
REMARK  Name = orig_f12_ligand
REMARK  12 active torsions:
REMARK  status: ('A' for Active; 'I' for Inactive)
REMARK    1  A    between atoms: C_1  and  C_2
REMARK    2  A    between atoms: C_2  and  C_3
REMARK    3  A    between atoms: C_3  and  C_4
REMARK    4  A    between atoms: C_4  and  C_5
REMARK    5  A    between atoms: C_5  and  C_6
REMARK    6  A    between atoms: C_5  and  O_8
REMARK    7  A    between atoms: C_6  and  C_7
REMARK    8  A    between atoms: O_8  and  C_9
REMARK    9  A    between atoms: C_9  and  C_11
REMARK   10  A    between atoms: C_12  and  C_13
REMARK   11  A    between atoms: C_16  and  O_17
REMARK   12  A    between atoms: O_17  and  C_18
REMARK                            x       y       z     vdW  Elec       q    Type
REMARK                         _______ _______ _______ _____ _____    ______ ____
ROOT
ATOM      1  C   UNL     1       0.611  -1.679   7.072  0.00  0.00    +0.000 C 
ATOM      2  O   UNL     1       0.049  -2.752   7.043  0.00  0.00    +0.000 OA
ENDROOT
BRANCH   1   3
ATOM      3  C   UNL     1       1.054  -1.005   8.299  0.00  0.00    +0.000 C 
ATOM      4  C   UNL     1       1.361   0.298   8.255  0.00  0.00    +0.000 C 
BRANCH   4   5
ATOM      5  C   UNL     1       1.924   1.017   9.412  0.00  0.00    +0.000 A 
ATOM      6  C   UNL     1       1.514   0.763  10.701  0.00  0.00    +0.000 A 
ATOM      7  C   UNL     1       2.091   1.432  11.768  0.00  0.00    +0.000 A 
ATOM      8  C   UNL     1       3.073   2.361  11.544  0.00  0.00    +0.000 A 
ATOM      9  C   UNL     1       3.493   2.620  10.252  0.00  0.00    +0.000 A 
ATOM     10  C   UNL     1       2.903   1.953   9.185  0.00  0.00    +0.000 A 
BRANCH   8  11
ATOM     11  O   UNL     1       3.689   3.038  12.557  0.00  0.00    +0.000 OA
ATOM     12  C   UNL     1       5.109   3.083  12.616  0.00  0.00    +0.000 C 
ENDBRANCH   8  11
ENDBRANCH   4   5
ENDBRANCH   1   3
BRANCH   1  13
ATOM     13  O   UNL     1       0.849  -0.961   5.983  0.00  0.00    +0.000 OA
BRANCH  13  14
ATOM     14  C   UNL     1       1.557  -1.545   4.917  0.00  0.00    +0.000 C 
BRANCH  14  15
ATOM     15  C   UNL     1       0.637  -1.699   3.716  0.00  0.00    +0.000 C 
ATOM     16  C   UNL     1       1.338  -1.763   2.372  0.00  0.00    +0.000 C 
ENDBRANCH  14  15
BRANCH  14  17
ATOM     17  C   UNL     1       2.741  -0.664   4.584  0.00  0.00    +0.000 C 
BRANCH  17  18
ATOM     18  C   UNL     1       3.979  -0.994   5.353  0.00  0.00    +0.000 C 
BRANCH  18  20
ATOM     19  C   UNL     1       5.131  -0.392   7.483  0.00  0.00    +0.000 C 
ATOM     20  C   UNL     1       4.376   0.119   6.279  0.00  0.00    +0.000 C 
ENDBRANCH  18  20
ENDBRANCH  17  18
ENDBRANCH  14  17
ENDBRANCH  13  14
ENDBRANCH   1  13
TORSDOF 9
ENDMDL
MODEL 8
REMARK VINA RESULT:      -5.0      3.215      4.676
REMARK  Name = orig_f12_ligand
REMARK  12 active torsions:
REMARK  status: ('A' for Active; 'I' for Inactive)
REMARK    1  A    between atoms: C_1  and  C_2
REMARK    2  A    between atoms: C_2  and  C_3
REMARK    3  A    between atoms: C_3  and  C_4
REMARK    4  A    between atoms: C_4  and  C_5
REMARK    5  A    between atoms: C_5  and  C_6
REMARK    6  A    between atoms: C_5  and  O_8
REMARK    7  A    between atoms: C_6  and  C_7
REMARK    8  A    between atoms: O_8  and  C_9
REMARK    9  A    between atoms: C_9  and  C_11
REMARK   10  A    between atoms: C_12  and  C_13
REMARK   11  A    between atoms: C_16  and  O_17
REMARK   12  A    between atoms: O_17  and  C_18
REMARK                            x       y       z     vdW  Elec       q    Type
REMARK                         _______ _______ _______ _____ _____    ______ ____
ROOT
ATOM      1  C   UNL     1       3.071  -0.761   4.058  0.00  0.00    +0.000 C 
ATOM      2  O   UNL     1       3.530  -1.863   3.852  0.00  0.00    +0.000 OA
ENDROOT
BRANCH   1   3
ATOM      3  C   UNL     1       3.703   0.259   4.903  0.00  0.00    +0.000 C 
ATOM      4  C   UNL     1       4.273  -0.108   6.057  0.00  0.00    +0.000 C 
BRANCH   4   5
ATOM      5  C   UNL     1       4.822   0.868   7.014  0.00  0.00    +0.000 A 
ATOM      6  C   UNL     1       5.620   0.489   8.071  0.00  0.00    +0.000 A 
ATOM      7  C   UNL     1       6.149   1.437   8.930  0.00  0.00    +0.000 A 
ATOM      8  C   UNL     1       5.873   2.765   8.737  0.00  0.00    +0.000 A 
ATOM      9  C   UNL     1       5.075   3.155   7.678  0.00  0.00    +0.000 A 
ATOM     10  C   UNL     1       4.539   2.198   6.825  0.00  0.00    +0.000 A 
BRANCH   8  11
ATOM     11  O   UNL     1       6.380   3.745   9.542  0.00  0.00    +0.000 OA
ATOM     12  C   UNL     1       6.524   3.510  10.937  0.00  0.00    +0.000 C 
ENDBRANCH   8  11
ENDBRANCH   4   5
ENDBRANCH   1   3
BRANCH   1  13
ATOM     13  O   UNL     1       1.901  -0.367   3.574  0.00  0.00    +0.000 OA
BRANCH  13  14
ATOM     14  C   UNL     1       0.723  -0.971   4.049  0.00  0.00    +0.000 C 
BRANCH  14  15
ATOM     15  C   UNL     1       0.430  -2.225   3.242  0.00  0.00    +0.000 C 
ATOM     16  C   UNL     1      -0.521  -3.208   3.901  0.00  0.00    +0.000 C 
ENDBRANCH  14  15
BRANCH  14  17
ATOM     17  C   UNL     1       0.907  -1.299   5.515  0.00  0.00    +0.000 C 
BRANCH  17  18
ATOM     18  C   UNL     1       0.401  -0.241   6.442  0.00  0.00    +0.000 C 
BRANCH  18  20
ATOM     19  C   UNL     1       1.591  -1.785   7.999  0.00  0.00    +0.000 C 
ATOM     20  C   UNL     1       0.831  -0.487   7.859  0.00  0.00    +0.000 C 
ENDBRANCH  18  20
ENDBRANCH  17  18
ENDBRANCH  14  17
ENDBRANCH  13  14
ENDBRANCH   1  13
TORSDOF 9
ENDMDL
MODEL 9
REMARK VINA RESULT:      -5.0      3.094      5.334
REMARK  Name = orig_f12_ligand
REMARK  12 active torsions:
REMARK  status: ('A' for Active; 'I' for Inactive)
REMARK    1  A    between atoms: C_1  and  C_2
REMARK    2  A    between atoms: C_2  and  C_3
REMARK    3  A    between atoms: C_3  and  C_4
REMARK    4  A    between atoms: C_4  and  C_5
REMARK    5  A    between atoms: C_5  and  C_6
REMARK    6  A    between atoms: C_5  and  O_8
REMARK    7  A    between atoms: C_6  and  C_7
REMARK    8  A    between atoms: O_8  and  C_9
REMARK    9  A    between atoms: C_9  and  C_11
REMARK   10  A    between atoms: C_12  and  C_13
REMARK   11  A    between atoms: C_16  and  O_17
REMARK   12  A    between atoms: O_17  and  C_18
REMARK                            x       y       z     vdW  Elec       q    Type
REMARK                         _______ _______ _______ _____ _____    ______ ____
ROOT
ATOM      1  C   UNL     1       3.943  -1.792   6.710  0.00  0.00    +0.000 C 
ATOM      2  O   UNL     1       3.893  -2.415   7.749  0.00  0.00    +0.000 OA
ENDROOT
BRANCH   1   3
ATOM      3  C   UNL     1       4.659  -0.523   6.535  0.00  0.00    +0.000 C 
ATOM      4  C   UNL     1       4.570   0.416   7.485  0.00  0.00    +0.000 C 
BRANCH   4   5
ATOM      5  C   UNL     1       5.160   1.757   7.331  0.00  0.00    +0.000 A 
ATOM      6  C   UNL     1       4.665   2.675   6.432  0.00  0.00    +0.000 A 
ATOM      7  C   UNL     1       5.222   3.940   6.339  0.00  0.00    +0.000 A 
ATOM      8  C   UNL     1       6.279   4.283   7.139  0.00  0.00    +0.000 A 
ATOM      9  C   UNL     1       6.781   3.369   8.046  0.00  0.00    +0.000 A 
ATOM     10  C   UNL     1       6.225   2.098   8.129  0.00  0.00    +0.000 A 
BRANCH   8  11
ATOM     11  O   UNL     1       6.856   5.520   7.102  0.00  0.00    +0.000 OA
ATOM     12  C   UNL     1       6.366   6.503   6.199  0.00  0.00    +0.000 C 
ENDBRANCH   8  11
ENDBRANCH   4   5
ENDBRANCH   1   3
BRANCH   1  13
ATOM     13  O   UNL     1       3.304  -2.172   5.613  0.00  0.00    +0.000 OA
BRANCH  13  14
ATOM     14  C   UNL     1       2.431  -1.268   4.980  0.00  0.00    +0.000 C 
BRANCH  14  15
ATOM     15  C   UNL     1       2.643  -1.322   3.475  0.00  0.00    +0.000 C 
ATOM     16  C   UNL     1       1.410  -1.674   2.663  0.00  0.00    +0.000 C 
ENDBRANCH  14  15
BRANCH  14  17
ATOM     17  C   UNL     1       1.009  -1.639   5.341  0.00  0.00    +0.000 C 
BRANCH  17  18
ATOM     18  C   UNL     1       0.218  -0.514   5.925  0.00  0.00    +0.000 C 
BRANCH  18  20
ATOM     19  C   UNL     1       1.056  -0.072   8.233  0.00  0.00    +0.000 C 
ATOM     20  C   UNL     1       1.064   0.374   6.790  0.00  0.00    +0.000 C 
ENDBRANCH  18  20
ENDBRANCH  17  18
ENDBRANCH  14  17
ENDBRANCH  13  14
ENDBRANCH   1  13
TORSDOF 9
ENDMDL
