MODEL 1
REMARK VINA RESULT:      -4.2      0.000      0.000
REMARK  Name = bg33_3_ligand
REMARK  12 active torsions:
REMARK  status: ('A' for Active; 'I' for Inactive)
REMARK    1  A    between atoms: C_1  and  C_2
REMARK    2  A    between atoms: C_2  and  C_3
REMARK    3  A    between atoms: C_3  and  C_4
REMARK    4  A    between atoms: C_4  and  C_5
REMARK    5  A    between atoms: C_5  and  C_6
REMARK    6  A    between atoms: C_5  and  O_8
REMARK    7  A    between atoms: C_6  and  C_7
REMARK    8  A    between atoms: O_8  and  C_9
REMARK    9  A    between atoms: C_9  and  C_11
REMARK   10  A    between atoms: C_12  and  C_13
REMARK   11  A    between atoms: C_16  and  O_17
REMARK   12  A    between atoms: O_17  and  C_18
REMARK                            x       y       z     vdW  Elec       q    Type
REMARK                         _______ _______ _______ _____ _____    ______ ____
ROOT
ATOM      1  C   UNL     1       6.108   6.228   3.522  0.00  0.00    +0.000 C 
ATOM      2  O   UNL     1       6.888   5.311   3.629  0.00  0.00    +0.000 OA
ENDROOT
BRANCH   1   3
ATOM      3  C   UNL     1       4.625   6.110   4.009  0.00  0.00    +0.000 C 
ATOM      4  C   UNL     1       3.825   5.181   3.438  0.00  0.00    +0.000 C 
BRANCH   4   5
ATOM      5  C   UNL     1       2.425   5.075   3.761  0.00  0.00    +0.000 A 
ATOM      6  C   UNL     1       1.885   3.894   4.220  0.00  0.00    +0.000 A 
ATOM      7  C   UNL     1       0.590   3.784   4.577  0.00  0.00    +0.000 A 
ATOM      8  C   UNL     1      -0.212   4.897   4.471  0.00  0.00    +0.000 A 
ATOM      9  C   UNL     1       0.278   6.070   3.989  0.00  0.00    +0.000 A 
ATOM     10  C   UNL     1       1.609   6.160   3.639  0.00  0.00    +0.000 A 
BRANCH   8  11
ATOM     11  O   UNL     1      -1.528   4.860   4.772  0.00  0.00    +0.000 OA
ATOM     12  C   UNL     1      -1.868   5.234   6.095  0.00  0.00    +0.000 C 
ENDBRANCH   8  11
ENDBRANCH   4   5
ENDBRANCH   1   3
BRANCH   1  13
ATOM     13  O   UNL     1       6.529   7.287   2.973  0.00  0.00    +0.000 OA
BRANCH  13  14
ATOM     14  C   UNL     1       6.304   7.435   1.535  0.00  0.00    +0.000 C 
BRANCH  14  15
ATOM     15  C   UNL     1       7.598   7.525   0.871  0.00  0.00    +0.000 C 
ATOM     16  C   UNL     1       7.495   7.687  -0.616  0.00  0.00    +0.000 C 
ENDBRANCH  14  15
BRANCH  14  17
ATOM     17  C   UNL     1       5.479   8.676   1.243  0.00  0.00    +0.000 C 
BRANCH  17  18
ATOM     18  C   UNL     1       4.003   8.237   1.124  0.00  0.00    +0.000 C 
BRANCH  18  20
ATOM     19  C   UNL     1       3.417   7.385  -1.117  0.00  0.00    +0.000 C 
ATOM     20  C   UNL     1       3.829   6.989   0.317  0.00  0.00    +0.000 C 
ENDBRANCH  18  20
ENDBRANCH  17  18
ENDBRANCH  14  17
ENDBRANCH  13  14
ENDBRANCH   1  13
TORSDOF 9
ENDMDL
MODEL 2
REMARK VINA RESULT:      -4.0      1.321      2.141
REMARK  Name = bg33_3_ligand
REMARK  12 active torsions:
REMARK  status: ('A' for Active; 'I' for Inactive)
REMARK    1  A    between atoms: C_1  and  C_2
REMARK    2  A    between atoms: C_2  and  C_3
REMARK    3  A    between atoms: C_3  and  C_4
REMARK    4  A    between atoms: C_4  and  C_5
REMARK    5  A    between atoms: C_5  and  C_6
REMARK    6  A    between atoms: C_5  and  O_8
REMARK    7  A    between atoms: C_6  and  C_7
REMARK    8  A    between atoms: O_8  and  C_9
REMARK    9  A    between atoms: C_9  and  C_11
REMARK   10  A    between atoms: C_12  and  C_13
REMARK   11  A    between atoms: C_16  and  O_17
REMARK   12  A    between atoms: O_17  and  C_18
REMARK                            x       y       z     vdW  Elec       q    Type
REMARK                         _______ _______ _______ _____ _____    ______ ____
ROOT
ATOM      1  C   UNL     1       5.676   7.396   1.916  0.00  0.00    +0.000 C 
ATOM      2  O   UNL     1       6.681   6.909   2.379  0.00  0.00    +0.000 OA
ENDROOT
BRANCH   1   3
ATOM      3  C   UNL     1       4.269   7.143   2.554  0.00  0.00    +0.000 C 
ATOM      4  C   UNL     1       3.955   5.893   2.963  0.00  0.00    +0.000 C 
BRANCH   4   5
ATOM      5  C   UNL     1       2.648   5.559   3.469  0.00  0.00    +0.000 A 
ATOM      6  C   UNL     1       1.633   6.489   3.493  0.00  0.00    +0.000 A 
ATOM      7  C   UNL     1       0.388   6.187   3.915  0.00  0.00    +0.000 A 
ATOM      8  C   UNL     1       0.137   4.901   4.336  0.00  0.00    +0.000 A 
ATOM      9  C   UNL     1       1.124   3.967   4.359  0.00  0.00    +0.000 A 
ATOM     10  C   UNL     1       2.387   4.298   3.915  0.00  0.00    +0.000 A 
BRANCH   8  11
ATOM     11  O   UNL     1      -1.071   4.528   4.809  0.00  0.00    +0.000 OA
ATOM     12  C   UNL     1      -1.549   5.258   5.925  0.00  0.00    +0.000 C 
ENDBRANCH   8  11
ENDBRANCH   4   5
ENDBRANCH   1   3
BRANCH   1  13
ATOM     13  O   UNL     1       5.800   8.102   0.874  0.00  0.00    +0.000 OA
BRANCH  13  14
ATOM     14  C   UNL     1       5.769   7.410  -0.414  0.00  0.00    +0.000 C 
BRANCH  14  15
ATOM     15  C   UNL     1       6.967   7.770  -1.162  0.00  0.00    +0.000 C 
ATOM     16  C   UNL     1       7.457   6.678  -2.065  0.00  0.00    +0.000 C 
ENDBRANCH  14  15
BRANCH  14  17
ATOM     17  C   UNL     1       4.528   7.791  -1.201  0.00  0.00    +0.000 C 
BRANCH  17  18
ATOM     18  C   UNL     1       3.809   6.483  -1.599  0.00  0.00    +0.000 C 
BRANCH  18  20
ATOM     19  C   UNL     1       4.246   7.580  -3.767  0.00  0.00    +0.000 C 
ATOM     20  C   UNL     1       3.662   6.326  -3.079  0.00  0.00    +0.000 C 
ENDBRANCH  18  20
ENDBRANCH  17  18
ENDBRANCH  14  17
ENDBRANCH  13  14
ENDBRANCH   1  13
TORSDOF 9
ENDMDL
MODEL 3
REMARK VINA RESULT:      -3.9      1.662      2.601
REMARK  Name = bg33_3_ligand
REMARK  12 active torsions:
REMARK  status: ('A' for Active; 'I' for Inactive)
REMARK    1  A    between atoms: C_1  and  C_2
REMARK    2  A    between atoms: C_2  and  C_3
REMARK    3  A    between atoms: C_3  and  C_4
REMARK    4  A    between atoms: C_4  and  C_5
REMARK    5  A    between atoms: C_5  and  C_6
REMARK    6  A    between atoms: C_5  and  O_8
REMARK    7  A    between atoms: C_6  and  C_7
REMARK    8  A    between atoms: O_8  and  C_9
REMARK    9  A    between atoms: C_9  and  C_11
REMARK   10  A    between atoms: C_12  and  C_13
REMARK   11  A    between atoms: C_16  and  O_17
REMARK   12  A    between atoms: O_17  and  C_18
REMARK                            x       y       z     vdW  Elec       q    Type
REMARK                         _______ _______ _______ _____ _____    ______ ____
ROOT
ATOM      1  C   UNL     1       4.923   7.507   0.842  0.00  0.00    +0.000 C 
ATOM      2  O   UNL     1       6.024   7.484   1.342  0.00  0.00    +0.000 OA
ENDROOT
BRANCH   1   3
ATOM      3  C   UNL     1       3.640   7.138   1.660  0.00  0.00    +0.000 C 
ATOM      4  C   UNL     1       3.717   6.149   2.579  0.00  0.00    +0.000 C 
BRANCH   4   5
ATOM      5  C   UNL     1       2.560   5.684   3.300  0.00  0.00    +0.000 A 
ATOM      6  C   UNL     1       2.499   4.405   3.807  0.00  0.00    +0.000 A 
ATOM      7  C   UNL     1       1.449   3.963   4.528  0.00  0.00    +0.000 A 
ATOM      8  C   UNL     1       0.406   4.831   4.757  0.00  0.00    +0.000 A 
ATOM      9  C   UNL     1       0.415   6.089   4.243  0.00  0.00    +0.000 A 
ATOM     10  C   UNL     1       1.505   6.520   3.516  0.00  0.00    +0.000 A 
BRANCH   8  11
ATOM     11  O   UNL     1      -0.699   4.455   5.437  0.00  0.00    +0.000 OA
ATOM     12  C   UNL     1      -1.054   5.275   6.536  0.00  0.00    +0.000 C 
ENDBRANCH   8  11
ENDBRANCH   4   5
ENDBRANCH   1   3
BRANCH   1  13
ATOM     13  O   UNL     1       4.848   7.818  -0.381  0.00  0.00    +0.000 OA
BRANCH  13  14
ATOM     14  C   UNL     1       4.947   6.734  -1.358  0.00  0.00    +0.000 C 
BRANCH  14  15
ATOM     15  C   UNL     1       5.421   7.289  -2.619  0.00  0.00    +0.000 C 
ATOM     16  C   UNL     1       6.907   7.483  -2.665  0.00  0.00    +0.000 C 
ENDBRANCH  14  15
BRANCH  14  17
ATOM     17  C   UNL     1       3.600   6.062  -1.556  0.00  0.00    +0.000 C 
BRANCH  17  18
ATOM     18  C   UNL     1       2.856   6.830  -2.670  0.00  0.00    +0.000 C 
BRANCH  18  20
ATOM     19  C   UNL     1       1.355   8.036  -1.126  0.00  0.00    +0.000 C 
ATOM     20  C   UNL     1       1.419   7.086  -2.341  0.00  0.00    +0.000 C 
ENDBRANCH  18  20
ENDBRANCH  17  18
ENDBRANCH  14  17
ENDBRANCH  13  14
ENDBRANCH   1  13
TORSDOF 9
ENDMDL
MODEL 4
REMARK VINA RESULT:      -3.9      2.448      3.976
REMARK  Name = bg33_3_ligand
REMARK  12 active torsions:
REMARK  status: ('A' for Active; 'I' for Inactive)
REMARK    1  A    between atoms: C_1  and  C_2
REMARK    2  A    between atoms: C_2  and  C_3
REMARK    3  A    between atoms: C_3  and  C_4
REMARK    4  A    between atoms: C_4  and  C_5
REMARK    5  A    between atoms: C_5  and  C_6
REMARK    6  A    between atoms: C_5  and  O_8
REMARK    7  A    between atoms: C_6  and  C_7
REMARK    8  A    between atoms: O_8  and  C_9
REMARK    9  A    between atoms: C_9  and  C_11
REMARK   10  A    between atoms: C_12  and  C_13
REMARK   11  A    between atoms: C_16  and  O_17
REMARK   12  A    between atoms: O_17  and  C_18
REMARK                            x       y       z     vdW  Elec       q    Type
REMARK                         _______ _______ _______ _____ _____    ______ ____
ROOT
ATOM      1  C   UNL     1       3.898   7.270   0.374  0.00  0.00    +0.000 C 
ATOM      2  O   UNL     1       4.608   8.216   0.121  0.00  0.00    +0.000 OA
ENDROOT
BRANCH   1   3
ATOM      3  C   UNL     1       3.320   7.035   1.810  0.00  0.00    +0.000 C 
ATOM      4  C   UNL     1       3.497   5.828   2.393  0.00  0.00    +0.000 C 
BRANCH   4   5
ATOM      5  C   UNL     1       2.913   5.502   3.669  0.00  0.00    +0.000 A 
ATOM      6  C   UNL     1       2.903   6.411   4.703  0.00  0.00    +0.000 A 
ATOM      7  C   UNL     1       2.318   6.148   5.889  0.00  0.00    +0.000 A 
ATOM      8  C   UNL     1       1.715   4.923   6.061  0.00  0.00    +0.000 A 
ATOM      9  C   UNL     1       1.737   3.988   5.074  0.00  0.00    +0.000 A 
ATOM     10  C   UNL     1       2.334   4.285   3.867  0.00  0.00    +0.000 A 
BRANCH   8  11
ATOM     11  O   UNL     1       1.141   4.567   7.230  0.00  0.00    +0.000 OA
ATOM     12  C   UNL     1       0.227   5.501   7.777  0.00  0.00    +0.000 C 
ENDBRANCH   8  11
ENDBRANCH   4   5
ENDBRANCH   1   3
BRANCH   1  13
ATOM     13  O   UNL     1       3.659   6.456  -0.564  0.00  0.00    +0.000 OA
BRANCH  13  14
ATOM     14  C   UNL     1       3.323   7.018  -1.872  0.00  0.00    +0.000 C 
BRANCH  14  15
ATOM     15  C   UNL     1       1.970   6.602  -2.221  0.00  0.00    +0.000 C 
ATOM     16  C   UNL     1       0.931   7.642  -1.923  0.00  0.00    +0.000 C 
ENDBRANCH  14  15
BRANCH  14  17
ATOM     17  C   UNL     1       4.303   6.544  -2.930  0.00  0.00    +0.000 C 
BRANCH  17  18
ATOM     18  C   UNL     1       4.884   7.797  -3.621  0.00  0.00    +0.000 C 
BRANCH  18  20
ATOM     19  C   UNL     1       6.910   6.973  -2.476  0.00  0.00    +0.000 C 
ATOM     20  C   UNL     1       6.201   8.219  -3.050  0.00  0.00    +0.000 C 
ENDBRANCH  18  20
ENDBRANCH  17  18
ENDBRANCH  14  17
ENDBRANCH  13  14
ENDBRANCH   1  13
TORSDOF 9
ENDMDL
MODEL 5
REMARK VINA RESULT:      -3.9      3.146      5.673
REMARK  Name = bg33_3_ligand
REMARK  12 active torsions:
REMARK  status: ('A' for Active; 'I' for Inactive)
REMARK    1  A    between atoms: C_1  and  C_2
REMARK    2  A    between atoms: C_2  and  C_3
REMARK    3  A    between atoms: C_3  and  C_4
REMARK    4  A    between atoms: C_4  and  C_5
REMARK    5  A    between atoms: C_5  and  C_6
REMARK    6  A    between atoms: C_5  and  O_8
REMARK    7  A    between atoms: C_6  and  C_7
REMARK    8  A    between atoms: O_8  and  C_9
REMARK    9  A    between atoms: C_9  and  C_11
REMARK   10  A    between atoms: C_12  and  C_13
REMARK   11  A    between atoms: C_16  and  O_17
REMARK   12  A    between atoms: O_17  and  C_18
REMARK                            x       y       z     vdW  Elec       q    Type
REMARK                         _______ _______ _______ _____ _____    ______ ____
ROOT
ATOM      1  C   UNL     1       1.921   6.577   6.988  0.00  0.00    +0.000 C 
ATOM      2  O   UNL     1       2.797   6.447   7.811  0.00  0.00    +0.000 OA
ENDROOT
BRANCH   1   3
ATOM      3  C   UNL     1       0.427   6.247   7.317  0.00  0.00    +0.000 C 
ATOM      4  C   UNL     1       0.155   5.193   8.120  0.00  0.00    +0.000 C 
BRANCH   4   5
ATOM      5  C   UNL     1      -1.194   4.766   8.390  0.00  0.00    +0.000 A 
ATOM      6  C   UNL     1      -1.515   4.108   9.556  0.00  0.00    +0.000 A 
ATOM      7  C   UNL     1      -2.779   3.743   9.855  0.00  0.00    +0.000 A 
ATOM      8  C   UNL     1      -3.773   4.043   8.952  0.00  0.00    +0.000 A 
ATOM      9  C   UNL     1      -3.488   4.660   7.775  0.00  0.00    +0.000 A 
ATOM     10  C   UNL     1      -2.190   5.031   7.497  0.00  0.00    +0.000 A 
BRANCH   8  11
ATOM     11  O   UNL     1      -5.057   3.679   9.158  0.00  0.00    +0.000 OA
ATOM     12  C   UNL     1      -6.037   4.591   8.696  0.00  0.00    +0.000 C 
ENDBRANCH   8  11
ENDBRANCH   4   5
ENDBRANCH   1   3
BRANCH   1  13
ATOM     13  O   UNL     1       2.262   6.966   5.834  0.00  0.00    +0.000 OA
BRANCH  13  14
ATOM     14  C   UNL     1       3.080   6.057   5.032  0.00  0.00    +0.000 C 
BRANCH  14  15
ATOM     15  C   UNL     1       4.222   6.798   4.513  0.00  0.00    +0.000 C 
ATOM     16  C   UNL     1       4.934   6.092   3.397  0.00  0.00    +0.000 C 
ENDBRANCH  14  15
BRANCH  14  17
ATOM     17  C   UNL     1       2.272   5.472   3.887  0.00  0.00    +0.000 C 
BRANCH  17  18
ATOM     18  C   UNL     1       2.039   3.977   4.196  0.00  0.00    +0.000 C 
BRANCH  18  20
ATOM     19  C   UNL     1      -0.307   4.736   4.088  0.00  0.00    +0.000 C 
ATOM     20  C   UNL     1       0.658   3.695   4.696  0.00  0.00    +0.000 C 
ENDBRANCH  18  20
ENDBRANCH  17  18
ENDBRANCH  14  17
ENDBRANCH  13  14
ENDBRANCH   1  13
TORSDOF 9
ENDMDL
MODEL 6
REMARK VINA RESULT:      -3.9      2.483      3.803
REMARK  Name = bg33_3_ligand
REMARK  12 active torsions:
REMARK  status: ('A' for Active; 'I' for Inactive)
REMARK    1  A    between atoms: C_1  and  C_2
REMARK    2  A    between atoms: C_2  and  C_3
REMARK    3  A    between atoms: C_3  and  C_4
REMARK    4  A    between atoms: C_4  and  C_5
REMARK    5  A    between atoms: C_5  and  C_6
REMARK    6  A    between atoms: C_5  and  O_8
REMARK    7  A    between atoms: C_6  and  C_7
REMARK    8  A    between atoms: O_8  and  C_9
REMARK    9  A    between atoms: C_9  and  C_11
REMARK   10  A    between atoms: C_12  and  C_13
REMARK   11  A    between atoms: C_16  and  O_17
REMARK   12  A    between atoms: O_17  and  C_18
REMARK                            x       y       z     vdW  Elec       q    Type
REMARK                         _______ _______ _______ _____ _____    ______ ____
ROOT
ATOM      1  C   UNL     1       4.148   6.985   0.992  0.00  0.00    +0.000 C 
ATOM      2  O   UNL     1       5.160   7.641   0.894  0.00  0.00    +0.000 OA
ENDROOT
BRANCH   1   3
ATOM      3  C   UNL     1       3.425   6.788   2.367  0.00  0.00    +0.000 C 
ATOM      4  C   UNL     1       3.427   5.559   2.932  0.00  0.00    +0.000 C 
BRANCH   4   5
ATOM      5  C   UNL     1       2.703   5.275   4.144  0.00  0.00    +0.000 A 
ATOM      6  C   UNL     1       2.689   6.165   5.195  0.00  0.00    +0.000 A 
ATOM      7  C   UNL     1       1.978   5.944   6.319  0.00  0.00    +0.000 A 
ATOM      8  C   UNL     1       1.246   4.782   6.408  0.00  0.00    +0.000 A 
ATOM      9  C   UNL     1       1.264   3.864   5.406  0.00  0.00    +0.000 A 
ATOM     10  C   UNL     1       1.992   4.118   4.262  0.00  0.00    +0.000 A 
BRANCH   8  11
ATOM     11  O   UNL     1       0.538   4.468   7.514  0.00  0.00    +0.000 OA
ATOM     12  C   UNL     1       1.041   4.982   8.734  0.00  0.00    +0.000 C 
ENDBRANCH   8  11
ENDBRANCH   4   5
ENDBRANCH   1   3
BRANCH   1  13
ATOM     13  O   UNL     1       3.707   6.438  -0.059  0.00  0.00    +0.000 OA
BRANCH  13  14
ATOM     14  C   UNL     1       3.616   7.267  -1.261  0.00  0.00    +0.000 C 
BRANCH  14  15
ATOM     15  C   UNL     1       2.309   7.913  -1.279  0.00  0.00    +0.000 C 
ATOM     16  C   UNL     1       1.312   7.217  -2.156  0.00  0.00    +0.000 C 
ENDBRANCH  14  15
BRANCH  14  17
ATOM     17  C   UNL     1       3.799   6.426  -2.512  0.00  0.00    +0.000 C 
BRANCH  17  18
ATOM     18  C   UNL     1       4.871   7.116  -3.383  0.00  0.00    +0.000 C 
BRANCH  18  20
ATOM     19  C   UNL     1       5.177   9.116  -4.797  0.00  0.00    +0.000 C 
ATOM     20  C   UNL     1       4.287   7.883  -4.526  0.00  0.00    +0.000 C 
ENDBRANCH  18  20
ENDBRANCH  17  18
ENDBRANCH  14  17
ENDBRANCH  13  14
ENDBRANCH   1  13
TORSDOF 9
ENDMDL
MODEL 7
REMARK VINA RESULT:      -3.9      1.374      1.881
REMARK  Name = bg33_3_ligand
REMARK  12 active torsions:
REMARK  status: ('A' for Active; 'I' for Inactive)
REMARK    1  A    between atoms: C_1  and  C_2
REMARK    2  A    between atoms: C_2  and  C_3
REMARK    3  A    between atoms: C_3  and  C_4
REMARK    4  A    between atoms: C_4  and  C_5
REMARK    5  A    between atoms: C_5  and  C_6
REMARK    6  A    between atoms: C_5  and  O_8
REMARK    7  A    between atoms: C_6  and  C_7
REMARK    8  A    between atoms: O_8  and  C_9
REMARK    9  A    between atoms: C_9  and  C_11
REMARK   10  A    between atoms: C_12  and  C_13
REMARK   11  A    between atoms: C_16  and  O_17
REMARK   12  A    between atoms: O_17  and  C_18
REMARK                            x       y       z     vdW  Elec       q    Type
REMARK                         _______ _______ _______ _____ _____    ______ ____
ROOT
ATOM      1  C   UNL     1       5.543   7.081   2.282  0.00  0.00    +0.000 C 
ATOM      2  O   UNL     1       6.490   6.688   2.923  0.00  0.00    +0.000 OA
ENDROOT
BRANCH   1   3
ATOM      3  C   UNL     1       4.071   6.868   2.772  0.00  0.00    +0.000 C 
ATOM      4  C   UNL     1       3.738   5.684   3.334  0.00  0.00    +0.000 C 
BRANCH   4   5
ATOM      5  C   UNL     1       2.385   5.376   3.719  0.00  0.00    +0.000 A 
ATOM      6  C   UNL     1       2.031   4.112   4.137  0.00  0.00    +0.000 A 
ATOM      7  C   UNL     1       0.783   3.812   4.551  0.00  0.00    +0.000 A 
ATOM      8  C   UNL     1      -0.162   4.811   4.548  0.00  0.00    +0.000 A 
ATOM      9  C   UNL     1       0.142   6.061   4.109  0.00  0.00    +0.000 A 
ATOM     10  C   UNL     1       1.427   6.346   3.699  0.00  0.00    +0.000 A 
BRANCH   8  11
ATOM     11  O   UNL     1      -1.443   4.584   4.910  0.00  0.00    +0.000 OA
ATOM     12  C   UNL     1      -2.301   5.711   4.881  0.00  0.00    +0.000 C 
ENDBRANCH   8  11
ENDBRANCH   4   5
ENDBRANCH   1   3
BRANCH   1  13
ATOM     13  O   UNL     1       5.785   7.652   1.180  0.00  0.00    +0.000 OA
BRANCH  13  14
ATOM     14  C   UNL     1       4.669   7.816   0.249  0.00  0.00    +0.000 C 
BRANCH  14  15
ATOM     15  C   UNL     1       4.976   7.086  -0.975  0.00  0.00    +0.000 C 
ATOM     16  C   UNL     1       3.815   6.301  -1.508  0.00  0.00    +0.000 C 
ENDBRANCH  14  15
BRANCH  14  17
ATOM     17  C   UNL     1       4.439   9.284  -0.063  0.00  0.00    +0.000 C 
BRANCH  17  18
ATOM     18  C   UNL     1       3.087   9.687   0.566  0.00  0.00    +0.000 C 
BRANCH  18  20
ATOM     19  C   UNL     1       0.989   8.389   0.630  0.00  0.00    +0.000 C 
ATOM     20  C   UNL     1       1.912   9.256  -0.253  0.00  0.00    +0.000 C 
ENDBRANCH  18  20
ENDBRANCH  17  18
ENDBRANCH  14  17
ENDBRANCH  13  14
ENDBRANCH   1  13
TORSDOF 9
ENDMDL
MODEL 8
REMARK VINA RESULT:      -3.8      2.211      3.355
REMARK  Name = bg33_3_ligand
REMARK  12 active torsions:
REMARK  status: ('A' for Active; 'I' for Inactive)
REMARK    1  A    between atoms: C_1  and  C_2
REMARK    2  A    between atoms: C_2  and  C_3
REMARK    3  A    between atoms: C_3  and  C_4
REMARK    4  A    between atoms: C_4  and  C_5
REMARK    5  A    between atoms: C_5  and  C_6
REMARK    6  A    between atoms: C_5  and  O_8
REMARK    7  A    between atoms: C_6  and  C_7
REMARK    8  A    between atoms: O_8  and  C_9
REMARK    9  A    between atoms: C_9  and  C_11
REMARK   10  A    between atoms: C_12  and  C_13
REMARK   11  A    between atoms: C_16  and  O_17
REMARK   12  A    between atoms: O_17  and  C_18
REMARK                            x       y       z     vdW  Elec       q    Type
REMARK                         _______ _______ _______ _____ _____    ______ ____
ROOT
ATOM      1  C   UNL     1       5.340   8.429   0.055  0.00  0.00    +0.000 C 
ATOM      2  O   UNL     1       5.957   9.368   0.503  0.00  0.00    +0.000 OA
ENDROOT
BRANCH   1   3
ATOM      3  C   UNL     1       4.753   7.312   0.981  0.00  0.00    +0.000 C 
ATOM      4  C   UNL     1       3.578   7.540   1.611  0.00  0.00    +0.000 C 
BRANCH   4   5
ATOM      5  C   UNL     1       3.022   6.604   2.554  0.00  0.00    +0.000 A 
ATOM      6  C   UNL     1       1.894   6.909   3.283  0.00  0.00    +0.000 A 
ATOM      7  C   UNL     1       1.326   6.031   4.135  0.00  0.00    +0.000 A 
ATOM      8  C   UNL     1       1.905   4.790   4.273  0.00  0.00    +0.000 A 
ATOM      9  C   UNL     1       3.038   4.467   3.595  0.00  0.00    +0.000 A 
ATOM     10  C   UNL     1       3.595   5.379   2.723  0.00  0.00    +0.000 A 
BRANCH   8  11
ATOM     11  O   UNL     1       1.420   3.868   5.132  0.00  0.00    +0.000 OA
ATOM     12  C   UNL     1       1.108   4.340   6.430  0.00  0.00    +0.000 C 
ENDBRANCH   8  11
ENDBRANCH   4   5
ENDBRANCH   1   3
BRANCH   1  13
ATOM     13  O   UNL     1       5.207   8.369  -1.201  0.00  0.00    +0.000 OA
BRANCH  13  14
ATOM     14  C   UNL     1       5.483   7.084  -1.845  0.00  0.00    +0.000 C 
BRANCH  14  15
ATOM     15  C   UNL     1       6.776   7.169  -2.511  0.00  0.00    +0.000 C 
ATOM     16  C   UNL     1       7.848   6.365  -1.838  0.00  0.00    +0.000 C 
ENDBRANCH  14  15
BRANCH  14  17
ATOM     17  C   UNL     1       4.399   6.741  -2.851  0.00  0.00    +0.000 C 
BRANCH  17  18
ATOM     18  C   UNL     1       3.268   6.017  -2.089  0.00  0.00    +0.000 C 
BRANCH  18  20
ATOM     19  C   UNL     1       2.145   8.003  -3.029  0.00  0.00    +0.000 C 
ATOM     20  C   UNL     1       1.949   6.712  -2.205  0.00  0.00    +0.000 C 
ENDBRANCH  18  20
ENDBRANCH  17  18
ENDBRANCH  14  17
ENDBRANCH  13  14
ENDBRANCH   1  13
TORSDOF 9
ENDMDL
MODEL 9
REMARK VINA RESULT:      -3.8      2.699      7.081
REMARK  Name = bg33_3_ligand
REMARK  12 active torsions:
REMARK  status: ('A' for Active; 'I' for Inactive)
REMARK    1  A    between atoms: C_1  and  C_2
REMARK    2  A    between atoms: C_2  and  C_3
REMARK    3  A    between atoms: C_3  and  C_4
REMARK    4  A    between atoms: C_4  and  C_5
REMARK    5  A    between atoms: C_5  and  C_6
REMARK    6  A    between atoms: C_5  and  O_8
REMARK    7  A    between atoms: C_6  and  C_7
REMARK    8  A    between atoms: O_8  and  C_9
REMARK    9  A    between atoms: C_9  and  C_11
REMARK   10  A    between atoms: C_12  and  C_13
REMARK   11  A    between atoms: C_16  and  O_17
REMARK   12  A    between atoms: O_17  and  C_18
REMARK                            x       y       z     vdW  Elec       q    Type
REMARK                         _______ _______ _______ _____ _____    ______ ____
ROOT
ATOM      1  C   UNL     1       1.173   8.223   3.246  0.00  0.00    +0.000 C 
ATOM      2  O   UNL     1       1.495   9.334   3.601  0.00  0.00    +0.000 OA
ENDROOT
BRANCH   1   3
ATOM      3  C   UNL     1       1.414   7.726   1.780  0.00  0.00    +0.000 C 
ATOM      4  C   UNL     1       2.637   7.894   1.229  0.00  0.00    +0.000 C 
BRANCH   4   5
ATOM      5  C   UNL     1       2.910   7.553  -0.144  0.00  0.00    +0.000 A 
ATOM      6  C   UNL     1       4.105   6.978  -0.513  0.00  0.00    +0.000 A 
ATOM      7  C   UNL     1       4.365   6.605  -1.783  0.00  0.00    +0.000 A 
ATOM      8  C   UNL     1       3.393   6.813  -2.734  0.00  0.00    +0.000 A 
ATOM      9  C   UNL     1       2.215   7.410  -2.412  0.00  0.00    +0.000 A 
ATOM     10  C   UNL     1       1.970   7.775  -1.105  0.00  0.00    +0.000 A 
BRANCH   8  11
ATOM     11  O   UNL     1       3.588   6.503  -4.034  0.00  0.00    +0.000 OA
ATOM     12  C   UNL     1       3.614   7.598  -4.931  0.00  0.00    +0.000 C 
ENDBRANCH   8  11
ENDBRANCH   4   5
ENDBRANCH   1   3
BRANCH   1  13
ATOM     13  O   UNL     1       0.608   7.481   4.099  0.00  0.00    +0.000 OA
BRANCH  13  14
ATOM     14  C   UNL     1       0.694   6.035   3.895  0.00  0.00    +0.000 C 
BRANCH  14  15
ATOM     15  C   UNL     1      -0.591   5.442   4.240  0.00  0.00    +0.000 C 
ATOM     16  C   UNL     1      -0.722   5.105   5.695  0.00  0.00    +0.000 C 
ENDBRANCH  14  15
BRANCH  14  17
ATOM     17  C   UNL     1       1.793   5.434   4.752  0.00  0.00    +0.000 C 
BRANCH  17  18
ATOM     18  C   UNL     1       2.472   4.320   3.925  0.00  0.00    +0.000 C 
BRANCH  18  20
ATOM     19  C   UNL     1       4.406   5.840   3.719  0.00  0.00    +0.000 C 
ATOM     20  C   UNL     1       3.494   4.846   2.968  0.00  0.00    +0.000 C 
ENDBRANCH  18  20
ENDBRANCH  17  18
ENDBRANCH  14  17
ENDBRANCH  13  14
ENDBRANCH   1  13
TORSDOF 9
ENDMDL
