REMARK  Name = ox2_esm1_f8_ligand
REMARK  5 active torsions:
REMARK  status: ('A' for Active; 'I' for Inactive)
REMARK    1  A    between atoms: C_1  and  O_2
REMARK    2  A    between atoms: O_2  and  C_3
REMARK    3  A    between atoms: C_6  and  C_7
REMARK    4  A    between atoms: C_7  and  C_9
REMARK    5  A    between atoms: C_15  and  O_16
REMARK                            x       y       z     vdW  Elec       q    Type
REMARK                         _______ _______ _______ _____ _____    ______ ____
ROOT
ATOM      1  C   UNL     1       2.875  -3.962  -0.371  0.00  0.00    +0.000 A 
ATOM      2  C   UNL     1       1.960  -3.087  -0.952  0.00  0.00    +0.000 A 
ATOM      3  C   UNL     1       0.614  -3.405  -0.981  0.00  0.00    +0.000 A 
ATOM      4  C   UNL     1       0.167  -4.601  -0.447  0.00  0.00    +0.000 A 
ATOM      5  C   UNL     1       1.082  -5.486   0.142  0.00  0.00    +0.000 A 
ATOM      6  C   UNL     1       2.434  -5.149   0.174  0.00  0.00    +0.000 A 
ENDROOT
BRANCH   1   8
ATOM      7  C   UNL     1       4.711  -2.458  -0.875  0.00  0.00    +0.000 C 
ATOM      8  O   UNL     1       4.211  -3.692  -0.310  0.00  0.00    +0.000 OA
ENDBRANCH   1   8
BRANCH   4   9
ATOM      9  C   UNL     1      -1.283  -4.963  -0.480  0.00  0.00    +0.000 C 
ATOM     10  O   UNL     1      -1.690  -5.871   0.212  0.00  0.00    +0.000 OA
BRANCH   9  11
ATOM     11  C   UNL     1      -2.238  -4.226  -1.334  0.00  0.00    +0.000 A 
ATOM     12  C   UNL     1      -3.411  -3.720  -0.780  0.00  0.00    +0.000 A 
ATOM     13  C   UNL     1      -4.304  -3.018  -1.584  0.00  0.00    +0.000 A 
ATOM     14  C   UNL     1      -4.062  -2.845  -2.940  0.00  0.00    +0.000 A 
ATOM     15  C   UNL     1      -2.912  -3.389  -3.492  0.00  0.00    +0.000 A 
ATOM     16  C   UNL     1      -1.999  -4.075  -2.691  0.00  0.00    +0.000 A 
ENDBRANCH   9  11
ENDBRANCH   4   9
BRANCH   5  17
ATOM     17  O   UNL     1       0.628  -6.661   0.675  0.00  0.00    +0.000 OA
ATOM     18  H   UNL     1       1.266  -7.293   1.093  0.00  0.00    +0.000 HD
ENDBRANCH   5  17
TORSDOF 4
