MODEL 1
REMARK VINA RESULT:      -6.5      0.000      0.000
REMARK  Name = ox2_esm1_f8_ligand
REMARK  5 active torsions:
REMARK  status: ('A' for Active; 'I' for Inactive)
REMARK    1  A    between atoms: C_1  and  O_2
REMARK    2  A    between atoms: O_2  and  C_3
REMARK    3  A    between atoms: C_6  and  C_7
REMARK    4  A    between atoms: C_7  and  C_9
REMARK    5  A    between atoms: C_15  and  O_16
REMARK                            x       y       z     vdW  Elec       q    Type
REMARK                         _______ _______ _______ _____ _____    ______ ____
ROOT
ATOM      1  C   UNL     1      -3.954  -3.453  -0.376  0.00  0.00    +0.000 A 
ATOM      2  C   UNL     1      -3.116  -2.353  -0.548  0.00  0.00    +0.000 A 
ATOM      3  C   UNL     1      -1.886  -2.503  -1.162  0.00  0.00    +0.000 A 
ATOM      4  C   UNL     1      -1.470  -3.750  -1.596  0.00  0.00    +0.000 A 
ATOM      5  C   UNL     1      -2.309  -4.862  -1.429  0.00  0.00    +0.000 A 
ATOM      6  C   UNL     1      -3.550  -4.694  -0.819  0.00  0.00    +0.000 A 
ENDROOT
BRANCH   1   8
ATOM      7  C   UNL     1      -5.599  -2.089   0.774  0.00  0.00    +0.000 C 
ATOM      8  O   UNL     1      -5.179  -3.356   0.216  0.00  0.00    +0.000 OA
ENDBRANCH   1   8
BRANCH   4   9
ATOM      9  C   UNL     1      -0.139  -3.930  -2.252  0.00  0.00    +0.000 C 
ATOM     10  O   UNL     1      -0.082  -4.156  -3.442  0.00  0.00    +0.000 OA
BRANCH   9  11
ATOM     11  C   UNL     1       1.117  -3.827  -1.480  0.00  0.00    +0.000 A 
ATOM     12  C   UNL     1       2.161  -3.041  -1.961  0.00  0.00    +0.000 A 
ATOM     13  C   UNL     1       3.339  -2.938  -1.227  0.00  0.00    +0.000 A 
ATOM     14  C   UNL     1       3.504  -3.636  -0.038  0.00  0.00    +0.000 A 
ATOM     15  C   UNL     1       2.476  -4.449   0.412  0.00  0.00    +0.000 A 
ATOM     16  C   UNL     1       1.282  -4.543  -0.304  0.00  0.00    +0.000 A 
ENDBRANCH   9  11
ENDBRANCH   4   9
BRANCH   5  17
ATOM     17  O   UNL     1      -1.891  -6.087  -1.871  0.00  0.00    +0.000 OA
ATOM     18  H   UNL     1      -2.492  -6.871  -1.793  0.00  0.00    +0.000 HD
ENDBRANCH   5  17
TORSDOF 4
ENDMDL
MODEL 2
REMARK VINA RESULT:      -6.2      3.980      6.243
REMARK  Name = ox2_esm1_f8_ligand
REMARK  5 active torsions:
REMARK  status: ('A' for Active; 'I' for Inactive)
REMARK    1  A    between atoms: C_1  and  O_2
REMARK    2  A    between atoms: O_2  and  C_3
REMARK    3  A    between atoms: C_6  and  C_7
REMARK    4  A    between atoms: C_7  and  C_9
REMARK    5  A    between atoms: C_15  and  O_16
REMARK                            x       y       z     vdW  Elec       q    Type
REMARK                         _______ _______ _______ _____ _____    ______ ____
ROOT
ATOM      1  C   UNL     1       2.595  -7.331   4.429  0.00  0.00    +0.000 A 
ATOM      2  C   UNL     1       1.936  -6.105   4.472  0.00  0.00    +0.000 A 
ATOM      3  C   UNL     1       1.351  -5.588   3.330  0.00  0.00    +0.000 A 
ATOM      4  C   UNL     1       1.428  -6.278   2.133  0.00  0.00    +0.000 A 
ATOM      5  C   UNL     1       2.087  -7.514   2.082  0.00  0.00    +0.000 A 
ATOM      6  C   UNL     1       2.664  -8.029   3.242  0.00  0.00    +0.000 A 
ENDROOT
BRANCH   1   8
ATOM      7  C   UNL     1       3.181  -7.158   6.777  0.00  0.00    +0.000 C 
ATOM      8  O   UNL     1       3.182  -7.888   5.528  0.00  0.00    +0.000 OA
ENDBRANCH   1   8
BRANCH   4   9
ATOM      9  C   UNL     1       0.809  -5.727   0.888  0.00  0.00    +0.000 C 
ATOM     10  O   UNL     1      -0.302  -6.086   0.562  0.00  0.00    +0.000 OA
BRANCH   9  11
ATOM     11  C   UNL     1       1.521  -4.741   0.049  0.00  0.00    +0.000 A 
ATOM     12  C   UNL     1       2.849  -4.428   0.329  0.00  0.00    +0.000 A 
ATOM     13  C   UNL     1       3.521  -3.507  -0.469  0.00  0.00    +0.000 A 
ATOM     14  C   UNL     1       2.877  -2.866  -1.519  0.00  0.00    +0.000 A 
ATOM     15  C   UNL     1       1.543  -3.152  -1.764  0.00  0.00    +0.000 A 
ATOM     16  C   UNL     1       0.866  -4.091  -0.985  0.00  0.00    +0.000 A 
ENDBRANCH   9  11
ENDBRANCH   4   9
BRANCH   5  17
ATOM     17  O   UNL     1       2.149  -8.191   0.895  0.00  0.00    +0.000 OA
ATOM     18  H   UNL     1       1.559  -8.972   0.740  0.00  0.00    +0.000 HD
ENDBRANCH   5  17
TORSDOF 4
ENDMDL
MODEL 3
REMARK VINA RESULT:      -6.0      2.076      5.920
REMARK  Name = ox2_esm1_f8_ligand
REMARK  5 active torsions:
REMARK  status: ('A' for Active; 'I' for Inactive)
REMARK    1  A    between atoms: C_1  and  O_2
REMARK    2  A    between atoms: O_2  and  C_3
REMARK    3  A    between atoms: C_6  and  C_7
REMARK    4  A    between atoms: C_7  and  C_9
REMARK    5  A    between atoms: C_15  and  O_16
REMARK                            x       y       z     vdW  Elec       q    Type
REMARK                         _______ _______ _______ _____ _____    ______ ____
ROOT
ATOM      1  C   UNL     1       3.202  -3.357  -0.440  0.00  0.00    +0.000 A 
ATOM      2  C   UNL     1       2.535  -2.913  -1.579  0.00  0.00    +0.000 A 
ATOM      3  C   UNL     1       1.292  -3.426  -1.903  0.00  0.00    +0.000 A 
ATOM      4  C   UNL     1       0.707  -4.395  -1.106  0.00  0.00    +0.000 A 
ATOM      5  C   UNL     1       1.371  -4.845   0.045  0.00  0.00    +0.000 A 
ATOM      6  C   UNL     1       2.619  -4.312   0.365  0.00  0.00    +0.000 A 
ENDROOT
BRANCH   1   8
ATOM      7  C   UNL     1       5.380  -2.514  -1.097  0.00  0.00    +0.000 C 
ATOM      8  O   UNL     1       4.426  -2.878  -0.073  0.00  0.00    +0.000 OA
ENDBRANCH   1   8
BRANCH   4   9
ATOM      9  C   UNL     1      -0.632  -4.966  -1.448  0.00  0.00    +0.000 C 
ATOM     10  O   UNL     1      -0.789  -6.168  -1.446  0.00  0.00    +0.000 OA
BRANCH   9  11
ATOM     11  C   UNL     1      -1.777  -4.091  -1.779  0.00  0.00    +0.000 A 
ATOM     12  C   UNL     1      -2.180  -3.954  -3.104  0.00  0.00    +0.000 A 
ATOM     13  C   UNL     1      -3.264  -3.138  -3.412  0.00  0.00    +0.000 A 
ATOM     14  C   UNL     1      -3.929  -2.428  -2.422  0.00  0.00    +0.000 A 
ATOM     15  C   UNL     1      -3.494  -2.537  -1.110  0.00  0.00    +0.000 A 
ATOM     16  C   UNL     1      -2.422  -3.370  -0.787  0.00  0.00    +0.000 A 
ENDBRANCH   9  11
ENDBRANCH   4   9
BRANCH   5  17
ATOM     17  O   UNL     1       0.779  -5.795   0.830  0.00  0.00    +0.000 OA
ATOM     18  H   UNL     1       1.060  -6.743   0.755  0.00  0.00    +0.000 HD
ENDBRANCH   5  17
TORSDOF 4
ENDMDL
MODEL 4
REMARK VINA RESULT:      -6.0      1.848      2.419
REMARK  Name = ox2_esm1_f8_ligand
REMARK  5 active torsions:
REMARK  status: ('A' for Active; 'I' for Inactive)
REMARK    1  A    between atoms: C_1  and  O_2
REMARK    2  A    between atoms: O_2  and  C_3
REMARK    3  A    between atoms: C_6  and  C_7
REMARK    4  A    between atoms: C_7  and  C_9
REMARK    5  A    between atoms: C_15  and  O_16
REMARK                            x       y       z     vdW  Elec       q    Type
REMARK                         _______ _______ _______ _____ _____    ______ ____
ROOT
ATOM      1  C   UNL     1      -3.758  -2.558  -2.767  0.00  0.00    +0.000 A 
ATOM      2  C   UNL     1      -3.341  -2.515  -1.439  0.00  0.00    +0.000 A 
ATOM      3  C   UNL     1      -2.284  -3.300  -1.015  0.00  0.00    +0.000 A 
ATOM      4  C   UNL     1      -1.642  -4.146  -1.903  0.00  0.00    +0.000 A 
ATOM      5  C   UNL     1      -2.055  -4.192  -3.243  0.00  0.00    +0.000 A 
ATOM      6  C   UNL     1      -3.115  -3.388  -3.659  0.00  0.00    +0.000 A 
ENDROOT
BRANCH   1   8
ATOM      7  C   UNL     1      -5.902  -2.444  -3.897  0.00  0.00    +0.000 C 
ATOM      8  O   UNL     1      -4.790  -1.798  -3.236  0.00  0.00    +0.000 OA
ENDBRANCH   1   8
BRANCH   4   9
ATOM      9  C   UNL     1      -0.505  -5.008  -1.458  0.00  0.00    +0.000 C 
ATOM     10  O   UNL     1      -0.644  -6.211  -1.419  0.00  0.00    +0.000 OA
BRANCH   9  11
ATOM     11  C   UNL     1       0.797  -4.422  -1.074  0.00  0.00    +0.000 A 
ATOM     12  C   UNL     1       1.427  -4.847   0.093  0.00  0.00    +0.000 A 
ATOM     13  C   UNL     1       2.657  -4.301   0.447  0.00  0.00    +0.000 A 
ATOM     14  C   UNL     1       3.250  -3.311  -0.325  0.00  0.00    +0.000 A 
ATOM     15  C   UNL     1       2.595  -2.864  -1.463  0.00  0.00    +0.000 A 
ATOM     16  C   UNL     1       1.372  -3.420  -1.840  0.00  0.00    +0.000 A 
ENDBRANCH   9  11
ENDBRANCH   4   9
BRANCH   5  17
ATOM     17  O   UNL     1      -1.407  -5.024  -4.114  0.00  0.00    +0.000 OA
ATOM     18  H   UNL     1      -0.425  -4.957  -4.224  0.00  0.00    +0.000 HD
ENDBRANCH   5  17
TORSDOF 4
ENDMDL
MODEL 5
REMARK VINA RESULT:      -5.8      2.818      5.527
REMARK  Name = ox2_esm1_f8_ligand
REMARK  5 active torsions:
REMARK  status: ('A' for Active; 'I' for Inactive)
REMARK    1  A    between atoms: C_1  and  O_2
REMARK    2  A    between atoms: O_2  and  C_3
REMARK    3  A    between atoms: C_6  and  C_7
REMARK    4  A    between atoms: C_7  and  C_9
REMARK    5  A    between atoms: C_15  and  O_16
REMARK                            x       y       z     vdW  Elec       q    Type
REMARK                         _______ _______ _______ _____ _____    ______ ____
ROOT
ATOM      1  C   UNL     1       1.261  -6.409   1.882  0.00  0.00    +0.000 A 
ATOM      2  C   UNL     1       0.523  -6.803   0.769  0.00  0.00    +0.000 A 
ATOM      3  C   UNL     1       0.388  -5.953  -0.314  0.00  0.00    +0.000 A 
ATOM      4  C   UNL     1       0.971  -4.698  -0.294  0.00  0.00    +0.000 A 
ATOM      5  C   UNL     1       1.718  -4.294   0.823  0.00  0.00    +0.000 A 
ATOM      6  C   UNL     1       1.855  -5.165   1.903  0.00  0.00    +0.000 A 
ENDROOT
BRANCH   1   8
ATOM      7  C   UNL     1       2.056  -6.673   4.159  0.00  0.00    +0.000 C 
ATOM      8  O   UNL     1       1.431  -7.212   2.972  0.00  0.00    +0.000 OA
ENDBRANCH   1   8
BRANCH   4   9
ATOM      9  C   UNL     1       0.825  -3.764  -1.452  0.00  0.00    +0.000 C 
ATOM     10  O   UNL     1       1.803  -3.203  -1.897  0.00  0.00    +0.000 OA
BRANCH   9  11
ATOM     11  C   UNL     1      -0.491  -3.518  -2.077  0.00  0.00    +0.000 A 
ATOM     12  C   UNL     1      -1.437  -2.742  -1.412  0.00  0.00    +0.000 A 
ATOM     13  C   UNL     1      -2.672  -2.504  -2.008  0.00  0.00    +0.000 A 
ATOM     14  C   UNL     1      -2.992  -3.058  -3.239  0.00  0.00    +0.000 A 
ATOM     15  C   UNL     1      -2.060  -3.865  -3.875  0.00  0.00    +0.000 A 
ATOM     16  C   UNL     1      -0.810  -4.092  -3.298  0.00  0.00    +0.000 A 
ENDBRANCH   9  11
ENDBRANCH   4   9
BRANCH   5  17
ATOM     17  O   UNL     1       2.297  -3.056   0.828  0.00  0.00    +0.000 OA
ATOM     18  H   UNL     1       2.737  -2.712   0.010  0.00  0.00    +0.000 HD
ENDBRANCH   5  17
TORSDOF 4
ENDMDL
MODEL 6
REMARK VINA RESULT:      -5.8      1.744      5.845
REMARK  Name = ox2_esm1_f8_ligand
REMARK  5 active torsions:
REMARK  status: ('A' for Active; 'I' for Inactive)
REMARK    1  A    between atoms: C_1  and  O_2
REMARK    2  A    between atoms: O_2  and  C_3
REMARK    3  A    between atoms: C_6  and  C_7
REMARK    4  A    between atoms: C_7  and  C_9
REMARK    5  A    between atoms: C_15  and  O_16
REMARK                            x       y       z     vdW  Elec       q    Type
REMARK                         _______ _______ _______ _____ _____    ______ ____
ROOT
ATOM      1  C   UNL     1       1.173  -2.968  -1.166  0.00  0.00    +0.000 A 
ATOM      2  C   UNL     1       0.366  -2.170  -0.358  0.00  0.00    +0.000 A 
ATOM      3  C   UNL     1      -0.992  -2.079  -0.603  0.00  0.00    +0.000 A 
ATOM      4  C   UNL     1      -1.558  -2.767  -1.662  0.00  0.00    +0.000 A 
ATOM      5  C   UNL     1      -0.753  -3.575  -2.479  0.00  0.00    +0.000 A 
ATOM      6  C   UNL     1       0.612  -3.666  -2.214  0.00  0.00    +0.000 A 
ENDROOT
BRANCH   1   8
ATOM      7  C   UNL     1       2.997  -4.085  -0.020  0.00  0.00    +0.000 C 
ATOM      8  O   UNL     1       2.516  -3.098  -0.961  0.00  0.00    +0.000 OA
ENDBRANCH   1   8
BRANCH   4   9
ATOM      9  C   UNL     1      -3.023  -2.670  -1.946  0.00  0.00    +0.000 C 
ATOM     10  O   UNL     1      -3.399  -2.236  -3.013  0.00  0.00    +0.000 OA
BRANCH   9  11
ATOM     11  C   UNL     1      -4.027  -3.107  -0.953  0.00  0.00    +0.000 A 
ATOM     12  C   UNL     1      -4.621  -2.167  -0.114  0.00  0.00    +0.000 A 
ATOM     13  C   UNL     1      -5.573  -2.579   0.813  0.00  0.00    +0.000 A 
ATOM     14  C   UNL     1      -5.915  -3.919   0.942  0.00  0.00    +0.000 A 
ATOM     15  C   UNL     1      -5.287  -4.852   0.132  0.00  0.00    +0.000 A 
ATOM     16  C   UNL     1      -4.347  -4.448  -0.817  0.00  0.00    +0.000 A 
ENDBRANCH   9  11
ENDBRANCH   4   9
BRANCH   5  17
ATOM     17  O   UNL     1      -1.325  -4.258  -3.516  0.00  0.00    +0.000 OA
ATOM     18  H   UNL     1      -2.299  -4.436  -3.513  0.00  0.00    +0.000 HD
ENDBRANCH   5  17
TORSDOF 4
ENDMDL
MODEL 7
REMARK VINA RESULT:      -5.8      2.146      3.123
REMARK  Name = ox2_esm1_f8_ligand
REMARK  5 active torsions:
REMARK  status: ('A' for Active; 'I' for Inactive)
REMARK    1  A    between atoms: C_1  and  O_2
REMARK    2  A    between atoms: O_2  and  C_3
REMARK    3  A    between atoms: C_6  and  C_7
REMARK    4  A    between atoms: C_7  and  C_9
REMARK    5  A    between atoms: C_15  and  O_16
REMARK                            x       y       z     vdW  Elec       q    Type
REMARK                         _______ _______ _______ _____ _____    ______ ____
ROOT
ATOM      1  C   UNL     1      -2.810  -5.046  -4.133  0.00  0.00    +0.000 A 
ATOM      2  C   UNL     1      -1.489  -4.675  -4.369  0.00  0.00    +0.000 A 
ATOM      3  C   UNL     1      -0.774  -3.991  -3.402  0.00  0.00    +0.000 A 
ATOM      4  C   UNL     1      -1.370  -3.657  -2.198  0.00  0.00    +0.000 A 
ATOM      5  C   UNL     1      -2.699  -4.029  -1.952  0.00  0.00    +0.000 A 
ATOM      6  C   UNL     1      -3.405  -4.727  -2.931  0.00  0.00    +0.000 A 
ENDROOT
BRANCH   1   8
ATOM      7  C   UNL     1      -4.958  -5.407  -5.203  0.00  0.00    +0.000 C 
ATOM      8  O   UNL     1      -3.556  -5.728  -5.050  0.00  0.00    +0.000 OA
ENDBRANCH   1   8
BRANCH   4   9
ATOM      9  C   UNL     1      -0.613  -2.909  -1.148  0.00  0.00    +0.000 C 
ATOM     10  O   UNL     1      -1.137  -1.973  -0.583  0.00  0.00    +0.000 OA
BRANCH   9  11
ATOM     11  C   UNL     1       0.763  -3.295  -0.773  0.00  0.00    +0.000 A 
ATOM     12  C   UNL     1       1.841  -2.817  -1.514  0.00  0.00    +0.000 A 
ATOM     13  C   UNL     1       3.136  -3.174  -1.154  0.00  0.00    +0.000 A 
ATOM     14  C   UNL     1       3.371  -4.031  -0.087  0.00  0.00    +0.000 A 
ATOM     15  C   UNL     1       2.290  -4.537   0.619  0.00  0.00    +0.000 A 
ATOM     16  C   UNL     1       0.989  -4.167   0.280  0.00  0.00    +0.000 A 
ENDBRANCH   9  11
ENDBRANCH   4   9
BRANCH   5  17
ATOM     17  O   UNL     1      -3.275  -3.701  -0.756  0.00  0.00    +0.000 OA
ATOM     18  H   UNL     1      -2.871  -2.996  -0.190  0.00  0.00    +0.000 HD
ENDBRANCH   5  17
TORSDOF 4
ENDMDL
MODEL 8
REMARK VINA RESULT:      -5.7      4.242      5.398
REMARK  Name = ox2_esm1_f8_ligand
REMARK  5 active torsions:
REMARK  status: ('A' for Active; 'I' for Inactive)
REMARK    1  A    between atoms: C_1  and  O_2
REMARK    2  A    between atoms: O_2  and  C_3
REMARK    3  A    between atoms: C_6  and  C_7
REMARK    4  A    between atoms: C_7  and  C_9
REMARK    5  A    between atoms: C_15  and  O_16
REMARK                            x       y       z     vdW  Elec       q    Type
REMARK                         _______ _______ _______ _____ _____    ______ ____
ROOT
ATOM      1  C   UNL     1       0.045  -6.311   5.177  0.00  0.00    +0.000 A 
ATOM      2  C   UNL     1       1.248  -5.630   5.011  0.00  0.00    +0.000 A 
ATOM      3  C   UNL     1       1.876  -5.616   3.778  0.00  0.00    +0.000 A 
ATOM      4  C   UNL     1       1.323  -6.292   2.705  0.00  0.00    +0.000 A 
ATOM      5  C   UNL     1       0.110  -6.978   2.864  0.00  0.00    +0.000 A 
ATOM      6  C   UNL     1      -0.518  -6.975   4.108  0.00  0.00    +0.000 A 
ENDROOT
BRANCH   1   8
ATOM      7  C   UNL     1      -1.847  -5.601   6.520  0.00  0.00    +0.000 C 
ATOM      8  O   UNL     1      -0.618  -6.349   6.369  0.00  0.00    +0.000 OA
ENDBRANCH   1   8
BRANCH   4   9
ATOM      9  C   UNL     1       1.995  -6.295   1.369  0.00  0.00    +0.000 C 
ATOM     10  O   UNL     1       2.650  -7.256   1.030  0.00  0.00    +0.000 OA
BRANCH   9  11
ATOM     11  C   UNL     1       1.868  -5.149   0.445  0.00  0.00    +0.000 A 
ATOM     12  C   UNL     1       2.974  -4.342   0.190  0.00  0.00    +0.000 A 
ATOM     13  C   UNL     1       2.855  -3.269  -0.689  0.00  0.00    +0.000 A 
ATOM     14  C   UNL     1       1.640  -2.968  -1.289  0.00  0.00    +0.000 A 
ATOM     15  C   UNL     1       0.533  -3.751  -0.996  0.00  0.00    +0.000 A 
ATOM     16  C   UNL     1       0.647  -4.842  -0.134  0.00  0.00    +0.000 A 
ENDBRANCH   9  11
ENDBRANCH   4   9
BRANCH   5  17
ATOM     17  O   UNL     1      -0.433  -7.634   1.793  0.00  0.00    +0.000 OA
ATOM     18  H   UNL     1      -0.967  -7.134   1.126  0.00  0.00    +0.000 HD
ENDBRANCH   5  17
TORSDOF 4
ENDMDL
MODEL 9
REMARK VINA RESULT:      -5.6      1.925      2.807
REMARK  Name = ox2_esm1_f8_ligand
REMARK  5 active torsions:
REMARK  status: ('A' for Active; 'I' for Inactive)
REMARK    1  A    between atoms: C_1  and  O_2
REMARK    2  A    between atoms: O_2  and  C_3
REMARK    3  A    between atoms: C_6  and  C_7
REMARK    4  A    between atoms: C_7  and  C_9
REMARK    5  A    between atoms: C_15  and  O_16
REMARK                            x       y       z     vdW  Elec       q    Type
REMARK                         _______ _______ _______ _____ _____    ______ ____
ROOT
ATOM      1  C   UNL     1      -3.322  -2.735  -2.496  0.00  0.00    +0.000 A 
ATOM      2  C   UNL     1      -2.823  -2.422  -1.234  0.00  0.00    +0.000 A 
ATOM      3  C   UNL     1      -1.513  -2.725  -0.908  0.00  0.00    +0.000 A 
ATOM      4  C   UNL     1      -0.692  -3.354  -1.828  0.00  0.00    +0.000 A 
ATOM      5  C   UNL     1      -1.187  -3.670  -3.102  0.00  0.00    +0.000 A 
ATOM      6  C   UNL     1      -2.505  -3.350  -3.421  0.00  0.00    +0.000 A 
ENDROOT
BRANCH   1   8
ATOM      7  C   UNL     1      -5.214  -3.207  -3.940  0.00  0.00    +0.000 C 
ATOM      8  O   UNL     1      -4.603  -2.451  -2.869  0.00  0.00    +0.000 OA
ENDBRANCH   1   8
BRANCH   4   9
ATOM      9  C   UNL     1       0.722  -3.697  -1.487  0.00  0.00    +0.000 C 
ATOM     10  O   UNL     1       1.630  -3.120  -2.045  0.00  0.00    +0.000 OA
BRANCH   9  11
ATOM     11  C   UNL     1       1.039  -4.722  -0.470  0.00  0.00    +0.000 A 
ATOM     12  C   UNL     1       0.312  -5.908  -0.435  0.00  0.00    +0.000 A 
ATOM     13  C   UNL     1       0.619  -6.875   0.517  0.00  0.00    +0.000 A 
ATOM     14  C   UNL     1       1.616  -6.661   1.459  0.00  0.00    +0.000 A 
ATOM     15  C   UNL     1       2.307  -5.459   1.444  0.00  0.00    +0.000 A 
ATOM     16  C   UNL     1       2.023  -4.492   0.480  0.00  0.00    +0.000 A 
ENDBRANCH   9  11
ENDBRANCH   4   9
BRANCH   5  17
ATOM     17  O   UNL     1      -0.364  -4.283  -4.006  0.00  0.00    +0.000 OA
ATOM     18  H   UNL     1       0.618  -4.186  -3.925  0.00  0.00    +0.000 HD
ENDBRANCH   5  17
TORSDOF 4
ENDMDL
