REMARK  Name = ox2_shuffle_esm0_ligand
REMARK  5 active torsions:
REMARK  status: ('A' for Active; 'I' for Inactive)
REMARK    1  A    between atoms: C_1  and  O_2
REMARK    2  A    between atoms: O_2  and  C_3
REMARK    3  A    between atoms: C_6  and  C_7
REMARK    4  A    between atoms: C_7  and  C_9
REMARK    5  A    between atoms: C_15  and  O_16
REMARK                            x       y       z     vdW  Elec       q    Type
REMARK                         _______ _______ _______ _____ _____    ______ ____
ROOT
ATOM      1  C   UNL     1      -3.799  -3.519   0.015  0.00  0.00    +0.000 A 
ATOM      2  C   UNL     1      -3.182  -3.099   1.187  0.00  0.00    +0.000 A 
ATOM      3  C   UNL     1      -1.812  -3.076   1.265  0.00  0.00    +0.000 A 
ATOM      4  C   UNL     1      -1.036  -3.458   0.195  0.00  0.00    +0.000 A 
ATOM      5  C   UNL     1      -1.654  -3.897  -0.968  0.00  0.00    +0.000 A 
ATOM      6  C   UNL     1      -3.033  -3.915  -1.053  0.00  0.00    +0.000 A 
ENDROOT
BRANCH   1   8
ATOM      7  C   UNL     1      -6.004  -3.560   1.019  0.00  0.00    +0.000 C 
ATOM      8  O   UNL     1      -5.144  -3.541  -0.124  0.00  0.00    +0.000 OA
ENDBRANCH   1   8
BRANCH   4   9
ATOM      9  C   UNL     1       0.451  -3.432   0.226  0.00  0.00    +0.000 C 
ATOM     10  O   UNL     1       1.029  -4.206  -0.494  0.00  0.00    +0.000 OA
BRANCH   9  11
ATOM     11  C   UNL     1       1.271  -2.492   1.016  0.00  0.00    +0.000 A 
ATOM     12  C   UNL     1       2.655  -2.502   0.847  0.00  0.00    +0.000 A 
ATOM     13  C   UNL     1       3.455  -1.627   1.546  0.00  0.00    +0.000 A 
ATOM     14  C   UNL     1       2.900  -0.726   2.432  0.00  0.00    +0.000 A 
ATOM     15  C   UNL     1       1.529  -0.701   2.597  0.00  0.00    +0.000 A 
ATOM     16  C   UNL     1       0.729  -1.575   1.883  0.00  0.00    +0.000 A 
ENDBRANCH   9  11
ENDBRANCH   4   9
BRANCH   5  17
ATOM     17  O   UNL     1      -0.877  -4.298  -2.010  0.00  0.00    +0.000 OA
ATOM     18  H   UNL     1      -1.298  -4.615  -2.848  0.00  0.00    +0.000 HD
ENDBRANCH   5  17
TORSDOF 4
