MODEL 1
REMARK VINA RESULT:      -5.3      0.000      0.000
REMARK  Name = ox2_shuffle_esm0_ligand
REMARK  5 active torsions:
REMARK  status: ('A' for Active; 'I' for Inactive)
REMARK    1  A    between atoms: C_1  and  O_2
REMARK    2  A    between atoms: O_2  and  C_3
REMARK    3  A    between atoms: C_6  and  C_7
REMARK    4  A    between atoms: C_7  and  C_9
REMARK    5  A    between atoms: C_15  and  O_16
REMARK                            x       y       z     vdW  Elec       q    Type
REMARK                         _______ _______ _______ _____ _____    ______ ____
ROOT
ATOM      1  C   UNL     1       0.893  -7.232   0.874  0.00  0.00    +0.000 A 
ATOM      2  C   UNL     1      -0.277  -7.210   1.624  0.00  0.00    +0.000 A 
ATOM      3  C   UNL     1      -1.283  -6.338   1.290  0.00  0.00    +0.000 A 
ATOM      4  C   UNL     1      -1.154  -5.486   0.218  0.00  0.00    +0.000 A 
ATOM      5  C   UNL     1       0.024  -5.495  -0.517  0.00  0.00    +0.000 A 
ATOM      6  C   UNL     1       1.036  -6.376  -0.189  0.00  0.00    +0.000 A 
ENDROOT
BRANCH   1   8
ATOM      7  C   UNL     1       2.712  -7.926   2.317  0.00  0.00    +0.000 C 
ATOM      8  O   UNL     1       1.906  -8.086   1.145  0.00  0.00    +0.000 OA
ENDBRANCH   1   8
BRANCH   4   9
ATOM      9  C   UNL     1      -2.224  -4.537  -0.193  0.00  0.00    +0.000 C 
ATOM     10  O   UNL     1      -2.765  -4.744  -1.249  0.00  0.00    +0.000 OA
BRANCH   9  11
ATOM     11  C   UNL     1      -2.717  -3.406   0.617  0.00  0.00    +0.000 A 
ATOM     12  C   UNL     1      -4.075  -3.092   0.576  0.00  0.00    +0.000 A 
ATOM     13  C   UNL     1      -4.582  -2.061   1.334  0.00  0.00    +0.000 A 
ATOM     14  C   UNL     1      -3.751  -1.314   2.144  0.00  0.00    +0.000 A 
ATOM     15  C   UNL     1      -2.407  -1.625   2.200  0.00  0.00    +0.000 A 
ATOM     16  C   UNL     1      -1.905  -2.670   1.445  0.00  0.00    +0.000 A 
ENDBRANCH   9  11
ENDBRANCH   4   9
BRANCH   5  17
ATOM     17  O   UNL     1       0.152  -4.629  -1.558  0.00  0.00    +0.000 OA
ATOM     18  H   UNL     1      -0.653  -4.211  -1.956  0.00  0.00    +0.000 HD
ENDBRANCH   5  17
TORSDOF 4
ENDMDL
MODEL 2
REMARK VINA RESULT:      -5.2      1.428      2.456
REMARK  Name = ox2_shuffle_esm0_ligand
REMARK  5 active torsions:
REMARK  status: ('A' for Active; 'I' for Inactive)
REMARK    1  A    between atoms: C_1  and  O_2
REMARK    2  A    between atoms: O_2  and  C_3
REMARK    3  A    between atoms: C_6  and  C_7
REMARK    4  A    between atoms: C_7  and  C_9
REMARK    5  A    between atoms: C_15  and  O_16
REMARK                            x       y       z     vdW  Elec       q    Type
REMARK                         _______ _______ _______ _____ _____    ______ ____
ROOT
ATOM      1  C   UNL     1       0.351  -5.889  -0.450  0.00  0.00    +0.000 A 
ATOM      2  C   UNL     1       0.139  -4.692  -1.122  0.00  0.00    +0.000 A 
ATOM      3  C   UNL     1      -1.098  -4.097  -1.080  0.00  0.00    +0.000 A 
ATOM      4  C   UNL     1      -2.133  -4.667  -0.376  0.00  0.00    +0.000 A 
ATOM      5  C   UNL     1      -1.925  -5.874   0.277  0.00  0.00    +0.000 A 
ATOM      6  C   UNL     1      -0.680  -6.472   0.244  0.00  0.00    +0.000 A 
ENDROOT
BRANCH   1   8
ATOM      7  C   UNL     1       2.544  -6.177   0.539  0.00  0.00    +0.000 C 
ATOM      8  O   UNL     1       1.554  -6.507  -0.439  0.00  0.00    +0.000 OA
ENDBRANCH   1   8
BRANCH   4   9
ATOM      9  C   UNL     1      -3.484  -4.051  -0.287  0.00  0.00    +0.000 C 
ATOM     10  O   UNL     1      -4.339  -4.494  -1.011  0.00  0.00    +0.000 OA
BRANCH   9  11
ATOM     11  C   UNL     1      -3.876  -2.989   0.661  0.00  0.00    +0.000 A 
ATOM     12  C   UNL     1      -2.891  -2.392   1.445  0.00  0.00    +0.000 A 
ATOM     13  C   UNL     1      -3.208  -1.382   2.325  0.00  0.00    +0.000 A 
ATOM     14  C   UNL     1      -4.512  -0.947   2.450  0.00  0.00    +0.000 A 
ATOM     15  C   UNL     1      -5.493  -1.525   1.668  0.00  0.00    +0.000 A 
ATOM     16  C   UNL     1      -5.166  -2.531   0.777  0.00  0.00    +0.000 A 
ENDBRANCH   9  11
ENDBRANCH   4   9
BRANCH   5  17
ATOM     17  O   UNL     1      -2.964  -6.442   0.948  0.00  0.00    +0.000 OA
ATOM     18  H   UNL     1      -2.987  -6.417   1.937  0.00  0.00    +0.000 HD
ENDBRANCH   5  17
TORSDOF 4
ENDMDL
MODEL 3
REMARK VINA RESULT:      -5.1      1.034      1.623
REMARK  Name = ox2_shuffle_esm0_ligand
REMARK  5 active torsions:
REMARK  status: ('A' for Active; 'I' for Inactive)
REMARK    1  A    between atoms: C_1  and  O_2
REMARK    2  A    between atoms: O_2  and  C_3
REMARK    3  A    between atoms: C_6  and  C_7
REMARK    4  A    between atoms: C_7  and  C_9
REMARK    5  A    between atoms: C_15  and  O_16
REMARK                            x       y       z     vdW  Elec       q    Type
REMARK                         _______ _______ _______ _____ _____    ______ ____
ROOT
ATOM      1  C   UNL     1       1.392  -7.314   1.070  0.00  0.00    +0.000 A 
ATOM      2  C   UNL     1       0.015  -7.453   0.947  0.00  0.00    +0.000 A 
ATOM      3  C   UNL     1      -0.739  -6.396   0.502  0.00  0.00    +0.000 A 
ATOM      4  C   UNL     1      -0.150  -5.198   0.169  0.00  0.00    +0.000 A 
ATOM      5  C   UNL     1       1.223  -5.054   0.312  0.00  0.00    +0.000 A 
ATOM      6  C   UNL     1       1.987  -6.118   0.753  0.00  0.00    +0.000 A 
ENDROOT
BRANCH   1   8
ATOM      7  C   UNL     1       3.082  -8.164   2.585  0.00  0.00    +0.000 C 
ATOM      8  O   UNL     1       2.185  -8.329   1.483  0.00  0.00    +0.000 OA
ENDBRANCH   1   8
BRANCH   4   9
ATOM      9  C   UNL     1      -0.923  -4.031  -0.335  0.00  0.00    +0.000 C 
ATOM     10  O   UNL     1      -0.716  -3.683  -1.470  0.00  0.00    +0.000 OA
BRANCH   9  11
ATOM     11  C   UNL     1      -1.967  -3.309   0.420  0.00  0.00    +0.000 A 
ATOM     12  C   UNL     1      -1.580  -2.443   1.441  0.00  0.00    +0.000 A 
ATOM     13  C   UNL     1      -2.519  -1.733   2.155  0.00  0.00    +0.000 A 
ATOM     14  C   UNL     1      -3.863  -1.871   1.874  0.00  0.00    +0.000 A 
ATOM     15  C   UNL     1      -4.255  -2.718   0.856  0.00  0.00    +0.000 A 
ATOM     16  C   UNL     1      -3.306  -3.420   0.134  0.00  0.00    +0.000 A 
ENDBRANCH   9  11
ENDBRANCH   4   9
BRANCH   5  17
ATOM     17  O   UNL     1       1.791  -3.857   0.006  0.00  0.00    +0.000 OA
ATOM     18  H   UNL     1       1.768  -3.522  -0.925  0.00  0.00    +0.000 HD
ENDBRANCH   5  17
TORSDOF 4
ENDMDL
MODEL 4
REMARK VINA RESULT:      -4.9      2.989      4.366
REMARK  Name = ox2_shuffle_esm0_ligand
REMARK  5 active torsions:
REMARK  status: ('A' for Active; 'I' for Inactive)
REMARK    1  A    between atoms: C_1  and  O_2
REMARK    2  A    between atoms: O_2  and  C_3
REMARK    3  A    between atoms: C_6  and  C_7
REMARK    4  A    between atoms: C_7  and  C_9
REMARK    5  A    between atoms: C_15  and  O_16
REMARK                            x       y       z     vdW  Elec       q    Type
REMARK                         _______ _______ _______ _____ _____    ______ ____
ROOT
ATOM      1  C   UNL     1       2.558  -2.567   1.670  0.00  0.00    +0.000 A 
ATOM      2  C   UNL     1       1.373  -1.937   1.311  0.00  0.00    +0.000 A 
ATOM      3  C   UNL     1       0.485  -2.577   0.483  0.00  0.00    +0.000 A 
ATOM      4  C   UNL     1       0.748  -3.839   0.004  0.00  0.00    +0.000 A 
ATOM      5  C   UNL     1       1.942  -4.459   0.347  0.00  0.00    +0.000 A 
ATOM      6  C   UNL     1       2.835  -3.821   1.187  0.00  0.00    +0.000 A 
ENDROOT
BRANCH   1   8
ATOM      7  C   UNL     1       3.657  -0.576   2.506  0.00  0.00    +0.000 C 
ATOM      8  O   UNL     1       3.457  -1.992   2.500  0.00  0.00    +0.000 OA
ENDBRANCH   1   8
BRANCH   4   9
ATOM      9  C   UNL     1      -0.191  -4.579  -0.881  0.00  0.00    +0.000 C 
ATOM     10  O   UNL     1       0.079  -4.623  -2.054  0.00  0.00    +0.000 OA
BRANCH   9  11
ATOM     11  C   UNL     1      -1.387  -5.317  -0.427  0.00  0.00    +0.000 A 
ATOM     12  C   UNL     1      -2.641  -4.906  -0.878  0.00  0.00    +0.000 A 
ATOM     13  C   UNL     1      -3.780  -5.580  -0.499  0.00  0.00    +0.000 A 
ATOM     14  C   UNL     1      -3.701  -6.673   0.340  0.00  0.00    +0.000 A 
ATOM     15  C   UNL     1      -2.462  -7.094   0.782  0.00  0.00    +0.000 A 
ATOM     16  C   UNL     1      -1.320  -6.420   0.388  0.00  0.00    +0.000 A 
ENDBRANCH   9  11
ENDBRANCH   4   9
BRANCH   5  17
ATOM     17  O   UNL     1       2.204  -5.697  -0.154  0.00  0.00    +0.000 OA
ATOM     18  H   UNL     1       1.489  -6.381  -0.181  0.00  0.00    +0.000 HD
ENDBRANCH   5  17
TORSDOF 4
ENDMDL
MODEL 5
REMARK VINA RESULT:      -4.8      2.573      4.723
REMARK  Name = ox2_shuffle_esm0_ligand
REMARK  5 active torsions:
REMARK  status: ('A' for Active; 'I' for Inactive)
REMARK    1  A    between atoms: C_1  and  O_2
REMARK    2  A    between atoms: O_2  and  C_3
REMARK    3  A    between atoms: C_6  and  C_7
REMARK    4  A    between atoms: C_7  and  C_9
REMARK    5  A    between atoms: C_15  and  O_16
REMARK                            x       y       z     vdW  Elec       q    Type
REMARK                         _______ _______ _______ _____ _____    ______ ____
ROOT
ATOM      1  C   UNL     1      -3.477  -5.983  -0.480  0.00  0.00    +0.000 A 
ATOM      2  C   UNL     1      -3.138  -4.776  -1.080  0.00  0.00    +0.000 A 
ATOM      3  C   UNL     1      -1.883  -4.253  -0.894  0.00  0.00    +0.000 A 
ATOM      4  C   UNL     1      -0.949  -4.909  -0.126  0.00  0.00    +0.000 A 
ATOM      5  C   UNL     1      -1.296  -6.104   0.489  0.00  0.00    +0.000 A 
ATOM      6  C   UNL     1      -2.557  -6.638   0.299  0.00  0.00    +0.000 A 
ENDROOT
BRANCH   1   8
ATOM      7  C   UNL     1      -5.501  -6.249  -1.786  0.00  0.00    +0.000 C 
ATOM      8  O   UNL     1      -4.691  -6.555  -0.647  0.00  0.00    +0.000 OA
ENDBRANCH   1   8
BRANCH   4   9
ATOM      9  C   UNL     1       0.429  -4.391   0.088  0.00  0.00    +0.000 C 
ATOM     10  O   UNL     1       1.333  -5.011  -0.411  0.00  0.00    +0.000 OA
BRANCH   9  11
ATOM     11  C   UNL     1       0.769  -3.145   0.805  0.00  0.00    +0.000 A 
ATOM     12  C   UNL     1       1.949  -2.480   0.473  0.00  0.00    +0.000 A 
ATOM     13  C   UNL     1       2.293  -1.304   1.100  0.00  0.00    +0.000 A 
ATOM     14  C   UNL     1       1.477  -0.765   2.074  0.00  0.00    +0.000 A 
ATOM     15  C   UNL     1       0.301  -1.411   2.401  0.00  0.00    +0.000 A 
ATOM     16  C   UNL     1      -0.045  -2.586   1.759  0.00  0.00    +0.000 A 
ENDBRANCH   9  11
ENDBRANCH   4   9
BRANCH   5  17
ATOM     17  O   UNL     1      -0.374  -6.731   1.269  0.00  0.00    +0.000 OA
ATOM     18  H   UNL     1      -0.667  -7.371   1.964  0.00  0.00    +0.000 HD
ENDBRANCH   5  17
TORSDOF 4
ENDMDL
MODEL 6
REMARK VINA RESULT:      -4.8      2.587      3.577
REMARK  Name = ox2_shuffle_esm0_ligand
REMARK  5 active torsions:
REMARK  status: ('A' for Active; 'I' for Inactive)
REMARK    1  A    between atoms: C_1  and  O_2
REMARK    2  A    between atoms: O_2  and  C_3
REMARK    3  A    between atoms: C_6  and  C_7
REMARK    4  A    between atoms: C_7  and  C_9
REMARK    5  A    between atoms: C_15  and  O_16
REMARK                            x       y       z     vdW  Elec       q    Type
REMARK                         _______ _______ _______ _____ _____    ______ ____
ROOT
ATOM      1  C   UNL     1       1.299  -6.324  -0.060  0.00  0.00    +0.000 A 
ATOM      2  C   UNL     1       0.458  -7.393   0.223  0.00  0.00    +0.000 A 
ATOM      3  C   UNL     1      -0.889  -7.179   0.376  0.00  0.00    +0.000 A 
ATOM      4  C   UNL     1      -1.423  -5.918   0.247  0.00  0.00    +0.000 A 
ATOM      5  C   UNL     1      -0.579  -4.847  -0.016  0.00  0.00    +0.000 A 
ATOM      6  C   UNL     1       0.777  -5.060  -0.177  0.00  0.00    +0.000 A 
ENDROOT
BRANCH   1   8
ATOM      7  C   UNL     1       3.567  -6.034   0.743  0.00  0.00    +0.000 C 
ATOM      8  O   UNL     1       2.630  -6.481  -0.241  0.00  0.00    +0.000 OA
ENDBRANCH   1   8
BRANCH   4   9
ATOM      9  C   UNL     1      -2.878  -5.639   0.385  0.00  0.00    +0.000 C 
ATOM     10  O   UNL     1      -3.235  -5.066   1.382  0.00  0.00    +0.000 OA
BRANCH   9  11
ATOM     11  C   UNL     1      -3.905  -5.949  -0.630  0.00  0.00    +0.000 A 
ATOM     12  C   UNL     1      -4.918  -6.851  -0.306  0.00  0.00    +0.000 A 
ATOM     13  C   UNL     1      -5.909  -7.151  -1.214  0.00  0.00    +0.000 A 
ATOM     14  C   UNL     1      -5.913  -6.566  -2.464  0.00  0.00    +0.000 A 
ATOM     15  C   UNL     1      -4.921  -5.662  -2.788  0.00  0.00    +0.000 A 
ATOM     16  C   UNL     1      -3.934  -5.356  -1.868  0.00  0.00    +0.000 A 
ENDBRANCH   9  11
ENDBRANCH   4   9
BRANCH   5  17
ATOM     17  O   UNL     1      -1.115  -3.601  -0.114  0.00  0.00    +0.000 OA
ATOM     18  H   UNL     1      -0.913  -3.036  -0.902  0.00  0.00    +0.000 HD
ENDBRANCH   5  17
TORSDOF 4
ENDMDL
MODEL 7
REMARK VINA RESULT:      -4.7      2.807      4.521
REMARK  Name = ox2_shuffle_esm0_ligand
REMARK  5 active torsions:
REMARK  status: ('A' for Active; 'I' for Inactive)
REMARK    1  A    between atoms: C_1  and  O_2
REMARK    2  A    between atoms: O_2  and  C_3
REMARK    3  A    between atoms: C_6  and  C_7
REMARK    4  A    between atoms: C_7  and  C_9
REMARK    5  A    between atoms: C_15  and  O_16
REMARK                            x       y       z     vdW  Elec       q    Type
REMARK                         _______ _______ _______ _____ _____    ______ ____
ROOT
ATOM      1  C   UNL     1       1.339  -1.799   1.241  0.00  0.00    +0.000 A 
ATOM      2  C   UNL     1       0.126  -1.953   1.901  0.00  0.00    +0.000 A 
ATOM      3  C   UNL     1      -0.545  -3.147   1.823  0.00  0.00    +0.000 A 
ATOM      4  C   UNL     1      -0.031  -4.202   1.104  0.00  0.00    +0.000 A 
ATOM      5  C   UNL     1       1.171  -4.040   0.429  0.00  0.00    +0.000 A 
ATOM      6  C   UNL     1       1.853  -2.841   0.510  0.00  0.00    +0.000 A 
ENDROOT
BRANCH   1   8
ATOM      7  C   UNL     1       3.179  -0.528   2.174  0.00  0.00    +0.000 C 
ATOM      8  O   UNL     1       2.052  -0.652   1.302  0.00  0.00    +0.000 OA
ENDBRANCH   1   8
BRANCH   4   9
ATOM      9  C   UNL     1      -0.712  -5.521   1.006  0.00  0.00    +0.000 C 
ATOM     10  O   UNL     1      -0.188  -6.452   1.563  0.00  0.00    +0.000 OA
BRANCH   9  11
ATOM     11  C   UNL     1      -2.007  -5.764   0.340  0.00  0.00    +0.000 A 
ATOM     12  C   UNL     1      -2.400  -4.915  -0.694  0.00  0.00    +0.000 A 
ATOM     13  C   UNL     1      -3.589  -5.120  -1.358  0.00  0.00    +0.000 A 
ATOM     14  C   UNL     1      -4.415  -6.168  -1.007  0.00  0.00    +0.000 A 
ATOM     15  C   UNL     1      -4.028  -7.021   0.008  0.00  0.00    +0.000 A 
ATOM     16  C   UNL     1      -2.827  -6.817   0.663  0.00  0.00    +0.000 A 
ENDBRANCH   9  11
ENDBRANCH   4   9
BRANCH   5  17
ATOM     17  O   UNL     1       1.657  -5.080  -0.301  0.00  0.00    +0.000 OA
ATOM     18  H   UNL     1       1.209  -5.346  -1.143  0.00  0.00    +0.000 HD
ENDBRANCH   5  17
TORSDOF 4
ENDMDL
MODEL 8
REMARK VINA RESULT:      -4.7      2.692      3.993
REMARK  Name = ox2_shuffle_esm0_ligand
REMARK  5 active torsions:
REMARK  status: ('A' for Active; 'I' for Inactive)
REMARK    1  A    between atoms: C_1  and  O_2
REMARK    2  A    between atoms: O_2  and  C_3
REMARK    3  A    between atoms: C_6  and  C_7
REMARK    4  A    between atoms: C_7  and  C_9
REMARK    5  A    between atoms: C_15  and  O_16
REMARK                            x       y       z     vdW  Elec       q    Type
REMARK                         _______ _______ _______ _____ _____    ______ ____
ROOT
ATOM      1  C   UNL     1       2.756  -7.176   4.131  0.00  0.00    +0.000 A 
ATOM      2  C   UNL     1       1.389  -7.414   4.182  0.00  0.00    +0.000 A 
ATOM      3  C   UNL     1       0.659  -7.446   3.020  0.00  0.00    +0.000 A 
ATOM      4  C   UNL     1       1.263  -7.250   1.800  0.00  0.00    +0.000 A 
ATOM      5  C   UNL     1       2.626  -6.992   1.752  0.00  0.00    +0.000 A 
ATOM      6  C   UNL     1       3.366  -6.966   2.919  0.00  0.00    +0.000 A 
ENDROOT
BRANCH   1   8
ATOM      7  C   UNL     1       3.035  -7.652   6.491  0.00  0.00    +0.000 C 
ATOM      8  O   UNL     1       3.527  -7.156   5.242  0.00  0.00    +0.000 OA
ENDBRANCH   1   8
BRANCH   4   9
ATOM      9  C   UNL     1       0.518  -7.294   0.513  0.00  0.00    +0.000 C 
ATOM     10  O   UNL     1       0.610  -8.301  -0.141  0.00  0.00    +0.000 OA
BRANCH   9  11
ATOM     11  C   UNL     1      -0.376  -6.232   0.009  0.00  0.00    +0.000 A 
ATOM     12  C   UNL     1      -1.748  -6.347   0.229  0.00  0.00    +0.000 A 
ATOM     13  C   UNL     1      -2.614  -5.369  -0.203  0.00  0.00    +0.000 A 
ATOM     14  C   UNL     1      -2.138  -4.257  -0.868  0.00  0.00    +0.000 A 
ATOM     15  C   UNL     1      -0.780  -4.128  -1.080  0.00  0.00    +0.000 A 
ATOM     16  C   UNL     1       0.087  -5.109  -0.633  0.00  0.00    +0.000 A 
ENDBRANCH   9  11
ENDBRANCH   4   9
BRANCH   5  17
ATOM     17  O   UNL     1       3.208  -6.773   0.542  0.00  0.00    +0.000 OA
ATOM     18  H   UNL     1       2.648  -6.691  -0.269  0.00  0.00    +0.000 HD
ENDBRANCH   5  17
TORSDOF 4
ENDMDL
MODEL 9
REMARK VINA RESULT:      -4.6      3.223      3.963
REMARK  Name = ox2_shuffle_esm0_ligand
REMARK  5 active torsions:
REMARK  status: ('A' for Active; 'I' for Inactive)
REMARK    1  A    between atoms: C_1  and  O_2
REMARK    2  A    between atoms: O_2  and  C_3
REMARK    3  A    between atoms: C_6  and  C_7
REMARK    4  A    between atoms: C_7  and  C_9
REMARK    5  A    between atoms: C_15  and  O_16
REMARK                            x       y       z     vdW  Elec       q    Type
REMARK                         _______ _______ _______ _____ _____    ______ ____
ROOT
ATOM      1  C   UNL     1       3.404  -2.758   1.439  0.00  0.00    +0.000 A 
ATOM      2  C   UNL     1       2.474  -1.788   1.086  0.00  0.00    +0.000 A 
ATOM      3  C   UNL     1       1.345  -2.148   0.393  0.00  0.00    +0.000 A 
ATOM      4  C   UNL     1       1.116  -3.459   0.045  0.00  0.00    +0.000 A 
ATOM      5  C   UNL     1       2.057  -4.423   0.380  0.00  0.00    +0.000 A 
ATOM      6  C   UNL     1       3.191  -4.067   1.084  0.00  0.00    +0.000 A 
ENDROOT
BRANCH   1   8
ATOM      7  C   UNL     1       5.139  -1.177   2.040  0.00  0.00    +0.000 C 
ATOM      8  O   UNL     1       4.522  -2.463   2.141  0.00  0.00    +0.000 OA
ENDBRANCH   1   8
BRANCH   4   9
ATOM      9  C   UNL     1      -0.100  -3.899  -0.690  0.00  0.00    +0.000 C 
ATOM     10  O   UNL     1       0.068  -4.511  -1.714  0.00  0.00    +0.000 OA
BRANCH   9  11
ATOM     11  C   UNL     1      -1.490  -3.703  -0.232  0.00  0.00    +0.000 A 
ATOM     12  C   UNL     1      -1.721  -2.916   0.896  0.00  0.00    +0.000 A 
ATOM     13  C   UNL     1      -3.003  -2.689   1.344  0.00  0.00    +0.000 A 
ATOM     14  C   UNL     1      -4.083  -3.240   0.685  0.00  0.00    +0.000 A 
ATOM     15  C   UNL     1      -3.864  -4.010  -0.440  0.00  0.00    +0.000 A 
ATOM     16  C   UNL     1      -2.575  -4.226  -0.892  0.00  0.00    +0.000 A 
ENDBRANCH   9  11
ENDBRANCH   4   9
BRANCH   5  17
ATOM     17  O   UNL     1       1.833  -5.712   0.007  0.00  0.00    +0.000 OA
ATOM     18  H   UNL     1       2.545  -6.225  -0.452  0.00  0.00    +0.000 HD
ENDBRANCH   5  17
TORSDOF 4
ENDMDL
