REMARK  Name = bgox31_2_ligand
REMARK  5 active torsions:
REMARK  status: ('A' for Active; 'I' for Inactive)
REMARK    1  A    between atoms: C_1  and  O_2
REMARK    2  A    between atoms: O_2  and  C_3
REMARK    3  A    between atoms: C_6  and  C_7
REMARK    4  A    between atoms: C_7  and  C_9
REMARK    5  A    between atoms: C_15  and  O_16
REMARK                            x       y       z     vdW  Elec       q    Type
REMARK                         _______ _______ _______ _____ _____    ______ ____
ROOT
ATOM      1  C   UNL     1      -8.961   0.840   1.218  0.00  0.00    +0.000 A 
ATOM      2  C   UNL     1      -9.024   2.046   0.514  0.00  0.00    +0.000 A 
ATOM      3  C   UNL     1      -8.214   3.095   0.869  0.00  0.00    +0.000 A 
ATOM      4  C   UNL     1      -7.348   2.925   1.914  0.00  0.00    +0.000 A 
ATOM      5  C   UNL     1      -7.245   1.719   2.587  0.00  0.00    +0.000 A 
ATOM      6  C   UNL     1      -8.051   0.684   2.222  0.00  0.00    +0.000 A 
ENDROOT
BRANCH   1   8
ATOM      7  C   UNL     1     -10.040  -1.139   1.843  0.00  0.00    +0.000 C 
ATOM      8  O   UNL     1      -9.796  -0.149   0.875  0.00  0.00    +0.000 OA
ENDBRANCH   1   8
BRANCH   4   9
ATOM      9  C   UNL     1      -6.494   4.096   2.307  0.00  0.00    +0.000 C 
ATOM     10  O   UNL     1      -5.384   3.873   2.704  0.00  0.00    +0.000 OA
BRANCH   9  11
ATOM     11  C   UNL     1      -6.919   5.451   2.110  0.00  0.00    +0.000 A 
ATOM     12  C   UNL     1      -5.932   6.401   1.985  0.00  0.00    +0.000 A 
ATOM     13  C   UNL     1      -6.303   7.721   1.859  0.00  0.00    +0.000 A 
ATOM     14  C   UNL     1      -7.639   8.042   1.846  0.00  0.00    +0.000 A 
ATOM     15  C   UNL     1      -8.575   7.134   1.983  0.00  0.00    +0.000 A 
ATOM     16  C   UNL     1      -8.208   5.810   2.100  0.00  0.00    +0.000 A 
ENDBRANCH   9  11
ENDBRANCH   4   9
BRANCH   5  17
ATOM     17  O   UNL     1      -6.326   1.605   3.558  0.00  0.00    +0.000 OA
ATOM     18  H   UNL     1      -6.233   0.753   4.054  0.00  0.00    +0.000 HD
ENDBRANCH   5  17
TORSDOF 4
