MODEL 1
REMARK VINA RESULT:      -4.1      0.000      0.000
REMARK  Name = bgox31_2_ligand
REMARK  5 active torsions:
REMARK  status: ('A' for Active; 'I' for Inactive)
REMARK    1  A    between atoms: C_1  and  O_2
REMARK    2  A    between atoms: O_2  and  C_3
REMARK    3  A    between atoms: C_6  and  C_7
REMARK    4  A    between atoms: C_7  and  C_9
REMARK    5  A    between atoms: C_15  and  O_16
REMARK                            x       y       z     vdW  Elec       q    Type
REMARK                         _______ _______ _______ _____ _____    ______ ____
ROOT
ATOM      1  C   UNL     1      -6.678   2.864   1.303  0.00  0.00    +0.000 A 
ATOM      2  C   UNL     1      -7.490   3.612   0.446  0.00  0.00    +0.000 A 
ATOM      3  C   UNL     1      -8.596   3.040  -0.131  0.00  0.00    +0.000 A 
ATOM      4  C   UNL     1      -8.881   1.735   0.161  0.00  0.00    +0.000 A 
ATOM      5  C   UNL     1      -8.110   1.000   1.046  0.00  0.00    +0.000 A 
ATOM      6  C   UNL     1      -7.018   1.580   1.615  0.00  0.00    +0.000 A 
ENDROOT
BRANCH   1   8
ATOM      7  C   UNL     1      -5.519   4.841   1.768  0.00  0.00    +0.000 C 
ATOM      8  O   UNL     1      -5.582   3.438   1.815  0.00  0.00    +0.000 OA
ENDBRANCH   1   8
BRANCH   4   9
ATOM      9  C   UNL     1     -10.077   1.119  -0.506  0.00  0.00    +0.000 C 
ATOM     10  O   UNL     1     -11.091   1.031   0.129  0.00  0.00    +0.000 OA
BRANCH   9  11
ATOM     11  C   UNL     1     -10.073   0.751  -1.892  0.00  0.00    +0.000 A 
ATOM     12  C   UNL     1      -9.418  -0.412  -2.226  0.00  0.00    +0.000 A 
ATOM     13  C   UNL     1      -9.338  -0.763  -3.555  0.00  0.00    +0.000 A 
ATOM     14  C   UNL     1      -9.927   0.046  -4.496  0.00  0.00    +0.000 A 
ATOM     15  C   UNL     1     -10.535   1.162  -4.174  0.00  0.00    +0.000 A 
ATOM     16  C   UNL     1     -10.625   1.513  -2.844  0.00  0.00    +0.000 A 
ENDBRANCH   9  11
ENDBRANCH   4   9
BRANCH   5  17
ATOM     17  O   UNL     1      -8.490  -0.254   1.336  0.00  0.00    +0.000 OA
ATOM     18  H   UNL     1      -7.807  -0.949   1.514  0.00  0.00    +0.000 HD
ENDBRANCH   5  17
TORSDOF 4
ENDMDL
MODEL 2
REMARK VINA RESULT:      -3.9      4.161      8.054
REMARK  Name = bgox31_2_ligand
REMARK  5 active torsions:
REMARK  status: ('A' for Active; 'I' for Inactive)
REMARK    1  A    between atoms: C_1  and  O_2
REMARK    2  A    between atoms: O_2  and  C_3
REMARK    3  A    between atoms: C_6  and  C_7
REMARK    4  A    between atoms: C_7  and  C_9
REMARK    5  A    between atoms: C_15  and  O_16
REMARK                            x       y       z     vdW  Elec       q    Type
REMARK                         _______ _______ _______ _____ _____    ______ ____
ROOT
ATOM      1  C   UNL     1      -6.456   3.068   1.449  0.00  0.00    +0.000 A 
ATOM      2  C   UNL     1      -5.612   4.034   2.004  0.00  0.00    +0.000 A 
ATOM      3  C   UNL     1      -5.006   3.807   3.213  0.00  0.00    +0.000 A 
ATOM      4  C   UNL     1      -5.243   2.620   3.849  0.00  0.00    +0.000 A 
ATOM      5  C   UNL     1      -6.041   1.638   3.286  0.00  0.00    +0.000 A 
ATOM      6  C   UNL     1      -6.633   1.872   2.083  0.00  0.00    +0.000 A 
ENDROOT
BRANCH   1   8
ATOM      7  C   UNL     1      -8.202   4.165   0.346  0.00  0.00    +0.000 C 
ATOM      8  O   UNL     1      -7.067   3.338   0.289  0.00  0.00    +0.000 OA
ENDBRANCH   1   8
BRANCH   4   9
ATOM      9  C   UNL     1      -4.596   2.406   5.187  0.00  0.00    +0.000 C 
ATOM     10  O   UNL     1      -5.283   2.506   6.166  0.00  0.00    +0.000 OA
BRANCH   9  11
ATOM     11  C   UNL     1      -3.234   1.976   5.317  0.00  0.00    +0.000 A 
ATOM     12  C   UNL     1      -2.303   2.940   5.625  0.00  0.00    +0.000 A 
ATOM     13  C   UNL     1      -0.978   2.575   5.694  0.00  0.00    +0.000 A 
ATOM     14  C   UNL     1      -0.632   1.264   5.470  0.00  0.00    +0.000 A 
ATOM     15  C   UNL     1      -1.522   0.353   5.160  0.00  0.00    +0.000 A 
ATOM     16  C   UNL     1      -2.852   0.712   5.099  0.00  0.00    +0.000 A 
ENDBRANCH   9  11
ENDBRANCH   4   9
BRANCH   5  17
ATOM     17  O   UNL     1      -6.174   0.472   3.936  0.00  0.00    +0.000 OA
ATOM     18  H   UNL     1      -5.507  -0.248   3.804  0.00  0.00    +0.000 HD
ENDBRANCH   5  17
TORSDOF 4
ENDMDL
MODEL 3
REMARK VINA RESULT:      -3.9      1.800      5.915
REMARK  Name = bgox31_2_ligand
REMARK  5 active torsions:
REMARK  status: ('A' for Active; 'I' for Inactive)
REMARK    1  A    between atoms: C_1  and  O_2
REMARK    2  A    between atoms: O_2  and  C_3
REMARK    3  A    between atoms: C_6  and  C_7
REMARK    4  A    between atoms: C_7  and  C_9
REMARK    5  A    between atoms: C_15  and  O_16
REMARK                            x       y       z     vdW  Elec       q    Type
REMARK                         _______ _______ _______ _____ _____    ______ ____
ROOT
ATOM      1  C   UNL     1     -11.066   1.263  -4.230  0.00  0.00    +0.000 A 
ATOM      2  C   UNL     1      -9.886   0.637  -3.817  0.00  0.00    +0.000 A 
ATOM      3  C   UNL     1      -9.563   0.583  -2.485  0.00  0.00    +0.000 A 
ATOM      4  C   UNL     1     -10.423   1.147  -1.583  0.00  0.00    +0.000 A 
ATOM      5  C   UNL     1     -11.617   1.728  -1.978  0.00  0.00    +0.000 A 
ATOM      6  C   UNL     1     -11.928   1.770  -3.303  0.00  0.00    +0.000 A 
ENDROOT
BRANCH   1   8
ATOM      7  C   UNL     1     -12.480   2.052  -5.918  0.00  0.00    +0.000 C 
ATOM      8  O   UNL     1     -11.330   1.337  -5.540  0.00  0.00    +0.000 OA
ENDBRANCH   1   8
BRANCH   4   9
ATOM      9  C   UNL     1     -10.035   1.107  -0.133  0.00  0.00    +0.000 C 
ATOM     10  O   UNL     1     -10.680   0.410   0.602  0.00  0.00    +0.000 OA
BRANCH   9  11
ATOM     11  C   UNL     1      -8.865   1.770   0.363  0.00  0.00    +0.000 A 
ATOM     12  C   UNL     1      -8.702   3.090   0.012  0.00  0.00    +0.000 A 
ATOM     13  C   UNL     1      -7.558   3.741   0.417  0.00  0.00    +0.000 A 
ATOM     14  C   UNL     1      -6.630   3.059   1.167  0.00  0.00    +0.000 A 
ATOM     15  C   UNL     1      -6.782   1.796   1.483  0.00  0.00    +0.000 A 
ATOM     16  C   UNL     1      -7.931   1.143   1.088  0.00  0.00    +0.000 A 
ENDBRANCH   9  11
ENDBRANCH   4   9
BRANCH   5  17
ATOM     17  O   UNL     1     -12.442   2.201  -1.031  0.00  0.00    +0.000 OA
ATOM     18  H   UNL     1     -13.406   2.312  -1.226  0.00  0.00    +0.000 HD
ENDBRANCH   5  17
TORSDOF 4
ENDMDL
MODEL 4
REMARK VINA RESULT:      -3.8      7.634      8.723
REMARK  Name = bgox31_2_ligand
REMARK  5 active torsions:
REMARK  status: ('A' for Active; 'I' for Inactive)
REMARK    1  A    between atoms: C_1  and  O_2
REMARK    2  A    between atoms: O_2  and  C_3
REMARK    3  A    between atoms: C_6  and  C_7
REMARK    4  A    between atoms: C_7  and  C_9
REMARK    5  A    between atoms: C_15  and  O_16
REMARK                            x       y       z     vdW  Elec       q    Type
REMARK                         _______ _______ _______ _____ _____    ______ ____
ROOT
ATOM      1  C   UNL     1      -3.871  -4.211  -2.924  0.00  0.00    +0.000 A 
ATOM      2  C   UNL     1      -3.025  -3.121  -3.147  0.00  0.00    +0.000 A 
ATOM      3  C   UNL     1      -3.279  -2.249  -4.175  0.00  0.00    +0.000 A 
ATOM      4  C   UNL     1      -4.376  -2.471  -4.962  0.00  0.00    +0.000 A 
ATOM      5  C   UNL     1      -5.247  -3.520  -4.720  0.00  0.00    +0.000 A 
ATOM      6  C   UNL     1      -4.986  -4.376  -3.693  0.00  0.00    +0.000 A 
ENDROOT
BRANCH   1   8
ATOM      7  C   UNL     1      -3.716  -4.598  -0.623  0.00  0.00    +0.000 C 
ATOM      8  O   UNL     1      -3.571  -5.067  -1.940  0.00  0.00    +0.000 OA
ENDBRANCH   1   8
BRANCH   4   9
ATOM      9  C   UNL     1      -4.618  -1.524  -6.102  0.00  0.00    +0.000 C 
ATOM     10  O   UNL     1      -5.568  -0.794  -6.034  0.00  0.00    +0.000 OA
BRANCH   9  11
ATOM     11  C   UNL     1      -3.694  -1.388  -7.190  0.00  0.00    +0.000 A 
ATOM     12  C   UNL     1      -2.813  -2.425  -7.392  0.00  0.00    +0.000 A 
ATOM     13  C   UNL     1      -1.870  -2.300  -8.387  0.00  0.00    +0.000 A 
ATOM     14  C   UNL     1      -1.850  -1.159  -9.151  0.00  0.00    +0.000 A 
ATOM     15  C   UNL     1      -2.681  -0.166  -8.942  0.00  0.00    +0.000 A 
ATOM     16  C   UNL     1      -3.633  -0.290  -7.953  0.00  0.00    +0.000 A 
ENDBRANCH   9  11
ENDBRANCH   4   9
BRANCH   5  17
ATOM     17  O   UNL     1      -6.339  -3.636  -5.491  0.00  0.00    +0.000 OA
ATOM     18  H   UNL     1      -6.374  -4.328  -6.198  0.00  0.00    +0.000 HD
ENDBRANCH   5  17
TORSDOF 4
ENDMDL
MODEL 5
REMARK VINA RESULT:      -3.8      7.504      9.907
REMARK  Name = bgox31_2_ligand
REMARK  5 active torsions:
REMARK  status: ('A' for Active; 'I' for Inactive)
REMARK    1  A    between atoms: C_1  and  O_2
REMARK    2  A    between atoms: O_2  and  C_3
REMARK    3  A    between atoms: C_6  and  C_7
REMARK    4  A    between atoms: C_7  and  C_9
REMARK    5  A    between atoms: C_15  and  O_16
REMARK                            x       y       z     vdW  Elec       q    Type
REMARK                         _______ _______ _______ _____ _____    ______ ____
ROOT
ATOM      1  C   UNL     1      -9.829   8.939  -2.005  0.00  0.00    +0.000 A 
ATOM      2  C   UNL     1      -8.808   8.168  -1.442  0.00  0.00    +0.000 A 
ATOM      3  C   UNL     1      -7.531   8.664  -1.366  0.00  0.00    +0.000 A 
ATOM      4  C   UNL     1      -7.291   9.923  -1.844  0.00  0.00    +0.000 A 
ATOM      5  C   UNL     1      -8.305  10.712  -2.360  0.00  0.00    +0.000 A 
ATOM      6  C   UNL     1      -9.569  10.211  -2.426  0.00  0.00    +0.000 A 
ENDROOT
BRANCH   1   8
ATOM      7  C   UNL     1     -12.006   9.143  -2.835  0.00  0.00    +0.000 C 
ATOM      8  O   UNL     1     -11.054   8.409  -2.105  0.00  0.00    +0.000 OA
ENDBRANCH   1   8
BRANCH   4   9
ATOM      9  C   UNL     1      -5.880  10.433  -1.781  0.00  0.00    +0.000 C 
ATOM     10  O   UNL     1      -5.636  11.312  -1.001  0.00  0.00    +0.000 OA
BRANCH   9  11
ATOM     11  C   UNL     1      -4.815   9.829  -2.526  0.00  0.00    +0.000 A 
ATOM     12  C   UNL     1      -5.043   9.602  -3.864  0.00  0.00    +0.000 A 
ATOM     13  C   UNL     1      -4.067   8.964  -4.597  0.00  0.00    +0.000 A 
ATOM     14  C   UNL     1      -2.899   8.593  -3.976  0.00  0.00    +0.000 A 
ATOM     15  C   UNL     1      -2.695   8.796  -2.696  0.00  0.00    +0.000 A 
ATOM     16  C   UNL     1      -3.666   9.443  -1.961  0.00  0.00    +0.000 A 
ENDBRANCH   9  11
ENDBRANCH   4   9
BRANCH   5  17
ATOM     17  O   UNL     1      -8.008  11.962  -2.748  0.00  0.00    +0.000 OA
ATOM     18  H   UNL     1      -7.398  12.110  -3.515  0.00  0.00    +0.000 HD
ENDBRANCH   5  17
TORSDOF 4
ENDMDL
MODEL 6
REMARK VINA RESULT:      -3.8      6.519      8.933
REMARK  Name = bgox31_2_ligand
REMARK  5 active torsions:
REMARK  status: ('A' for Active; 'I' for Inactive)
REMARK    1  A    between atoms: C_1  and  O_2
REMARK    2  A    between atoms: O_2  and  C_3
REMARK    3  A    between atoms: C_6  and  C_7
REMARK    4  A    between atoms: C_7  and  C_9
REMARK    5  A    between atoms: C_15  and  O_16
REMARK                            x       y       z     vdW  Elec       q    Type
REMARK                         _______ _______ _______ _____ _____    ______ ____
ROOT
ATOM      1  C   UNL     1      -7.825   7.394   0.675  0.00  0.00    +0.000 A 
ATOM      2  C   UNL     1      -6.927   8.451   0.841  0.00  0.00    +0.000 A 
ATOM      3  C   UNL     1      -6.783   9.395  -0.144  0.00  0.00    +0.000 A 
ATOM      4  C   UNL     1      -7.542   9.277  -1.276  0.00  0.00    +0.000 A 
ATOM      5  C   UNL     1      -8.468   8.259  -1.430  0.00  0.00    +0.000 A 
ATOM      6  C   UNL     1      -8.605   7.331  -0.443  0.00  0.00    +0.000 A 
ENDROOT
BRANCH   1   8
ATOM      7  C   UNL     1      -7.288   5.229   1.381  0.00  0.00    +0.000 C 
ATOM      8  O   UNL     1      -7.909   6.464   1.635  0.00  0.00    +0.000 OA
ENDBRANCH   1   8
BRANCH   4   9
ATOM      9  C   UNL     1      -7.345  10.302  -2.355  0.00  0.00    +0.000 C 
ATOM     10  O   UNL     1      -8.249  11.057  -2.584  0.00  0.00    +0.000 OA
BRANCH   9  11
ATOM     11  C   UNL     1      -6.088  10.477  -3.023  0.00  0.00    +0.000 A 
ATOM     12  C   UNL     1      -5.560   9.375  -3.654  0.00  0.00    +0.000 A 
ATOM     13  C   UNL     1      -4.324   9.489  -4.250  0.00  0.00    +0.000 A 
ATOM     14  C   UNL     1      -3.670  10.697  -4.209  0.00  0.00    +0.000 A 
ATOM     15  C   UNL     1      -4.171  11.739  -3.591  0.00  0.00    +0.000 A 
ATOM     16  C   UNL     1      -5.413  11.632  -3.001  0.00  0.00    +0.000 A 
ENDBRANCH   9  11
ENDBRANCH   4   9
BRANCH   5  17
ATOM     17  O   UNL     1      -9.225   8.245  -2.538  0.00  0.00    +0.000 OA
ATOM     18  H   UNL     1      -8.817   8.443  -3.418  0.00  0.00    +0.000 HD
ENDBRANCH   5  17
TORSDOF 4
ENDMDL
MODEL 7
REMARK VINA RESULT:      -3.8      2.235      5.940
REMARK  Name = bgox31_2_ligand
REMARK  5 active torsions:
REMARK  status: ('A' for Active; 'I' for Inactive)
REMARK    1  A    between atoms: C_1  and  O_2
REMARK    2  A    between atoms: O_2  and  C_3
REMARK    3  A    between atoms: C_6  and  C_7
REMARK    4  A    between atoms: C_7  and  C_9
REMARK    5  A    between atoms: C_15  and  O_16
REMARK                            x       y       z     vdW  Elec       q    Type
REMARK                         _______ _______ _______ _____ _____    ______ ____
ROOT
ATOM      1  C   UNL     1      -8.956  -1.891  -3.906  0.00  0.00    +0.000 A 
ATOM      2  C   UNL     1      -9.152  -2.213  -2.560  0.00  0.00    +0.000 A 
ATOM      3  C   UNL     1      -9.525  -1.242  -1.665  0.00  0.00    +0.000 A 
ATOM      4  C   UNL     1      -9.704   0.033  -2.125  0.00  0.00    +0.000 A 
ATOM      5  C   UNL     1      -9.558   0.353  -3.465  0.00  0.00    +0.000 A 
ATOM      6  C   UNL     1      -9.193  -0.621  -4.344  0.00  0.00    +0.000 A 
ENDROOT
BRANCH   1   8
ATOM      7  C   UNL     1      -7.369  -3.536  -4.404  0.00  0.00    +0.000 C 
ATOM      8  O   UNL     1      -8.550  -2.852  -4.745  0.00  0.00    +0.000 OA
ENDBRANCH   1   8
BRANCH   4   9
ATOM      9  C   UNL     1     -10.080   1.087  -1.124  0.00  0.00    +0.000 C 
ATOM     10  O   UNL     1     -11.243   1.354  -0.999  0.00  0.00    +0.000 OA
BRANCH   9  11
ATOM     11  C   UNL     1      -9.116   1.684  -0.246  0.00  0.00    +0.000 A 
ATOM     12  C   UNL     1      -8.856   3.023  -0.425  0.00  0.00    +0.000 A 
ATOM     13  C   UNL     1      -7.889   3.614   0.357  0.00  0.00    +0.000 A 
ATOM     14  C   UNL     1      -7.233   2.857   1.297  0.00  0.00    +0.000 A 
ATOM     15  C   UNL     1      -7.473   1.577   1.451  0.00  0.00    +0.000 A 
ATOM     16  C   UNL     1      -8.447   0.983   0.676  0.00  0.00    +0.000 A 
ENDBRANCH   9  11
ENDBRANCH   4   9
BRANCH   5  17
ATOM     17  O   UNL     1      -9.816   1.611  -3.854  0.00  0.00    +0.000 OA
ATOM     18  H   UNL     1      -9.253   2.039  -4.547  0.00  0.00    +0.000 HD
ENDBRANCH   5  17
TORSDOF 4
ENDMDL
MODEL 8
REMARK VINA RESULT:      -3.7      8.106     10.242
REMARK  Name = bgox31_2_ligand
REMARK  5 active torsions:
REMARK  status: ('A' for Active; 'I' for Inactive)
REMARK    1  A    between atoms: C_1  and  O_2
REMARK    2  A    between atoms: O_2  and  C_3
REMARK    3  A    between atoms: C_6  and  C_7
REMARK    4  A    between atoms: C_7  and  C_9
REMARK    5  A    between atoms: C_15  and  O_16
REMARK                            x       y       z     vdW  Elec       q    Type
REMARK                         _______ _______ _______ _____ _____    ______ ____
ROOT
ATOM      1  C   UNL     1     -11.110  10.462  -2.458  0.00  0.00    +0.000 A 
ATOM      2  C   UNL     1     -10.312  11.606  -2.367  0.00  0.00    +0.000 A 
ATOM      3  C   UNL     1      -8.963  11.489  -2.145  0.00  0.00    +0.000 A 
ATOM      4  C   UNL     1      -8.428  10.236  -2.026  0.00  0.00    +0.000 A 
ATOM      5  C   UNL     1      -9.202   9.096  -2.162  0.00  0.00    +0.000 A 
ATOM      6  C   UNL     1     -10.539   9.225  -2.387  0.00  0.00    +0.000 A 
ENDROOT
BRANCH   1   8
ATOM      7  C   UNL     1     -12.946  11.911  -2.487  0.00  0.00    +0.000 C 
ATOM      8  O   UNL     1     -12.429  10.611  -2.631  0.00  0.00    +0.000 OA
ENDBRANCH   1   8
BRANCH   4   9
ATOM      9  C   UNL     1      -6.955  10.132  -1.751  0.00  0.00    +0.000 C 
ATOM     10  O   UNL     1      -6.612   9.697  -0.687  0.00  0.00    +0.000 OA
BRANCH   9  11
ATOM     11  C   UNL     1      -5.969  10.419  -2.752  0.00  0.00    +0.000 A 
ATOM     12  C   UNL     1      -5.564   9.371  -3.545  0.00  0.00    +0.000 A 
ATOM     13  C   UNL     1      -4.572   9.596  -4.474  0.00  0.00    +0.000 A 
ATOM     14  C   UNL     1      -4.036  10.856  -4.588  0.00  0.00    +0.000 A 
ATOM     15  C   UNL     1      -4.414  11.847  -3.817  0.00  0.00    +0.000 A 
ATOM     16  C   UNL     1      -5.413  11.628  -2.893  0.00  0.00    +0.000 A 
ENDBRANCH   9  11
ENDBRANCH   4   9
BRANCH   5  17
ATOM     17  O   UNL     1      -8.597   7.900  -2.100  0.00  0.00    +0.000 OA
ATOM     18  H   UNL     1      -7.637   7.843  -1.864  0.00  0.00    +0.000 HD
ENDBRANCH   5  17
TORSDOF 4
ENDMDL
MODEL 9
REMARK VINA RESULT:      -3.7      1.338      2.304
REMARK  Name = bgox31_2_ligand
REMARK  5 active torsions:
REMARK  status: ('A' for Active; 'I' for Inactive)
REMARK    1  A    between atoms: C_1  and  O_2
REMARK    2  A    between atoms: O_2  and  C_3
REMARK    3  A    between atoms: C_6  and  C_7
REMARK    4  A    between atoms: C_7  and  C_9
REMARK    5  A    between atoms: C_15  and  O_16
REMARK                            x       y       z     vdW  Elec       q    Type
REMARK                         _______ _______ _______ _____ _____    ______ ____
ROOT
ATOM      1  C   UNL     1      -6.031   3.512   1.674  0.00  0.00    +0.000 A 
ATOM      2  C   UNL     1      -6.205   2.135   1.846  0.00  0.00    +0.000 A 
ATOM      3  C   UNL     1      -7.343   1.521   1.387  0.00  0.00    +0.000 A 
ATOM      4  C   UNL     1      -8.287   2.284   0.758  0.00  0.00    +0.000 A 
ATOM      5  C   UNL     1      -8.103   3.640   0.541  0.00  0.00    +0.000 A 
ATOM      6  C   UNL     1      -6.967   4.237   0.997  0.00  0.00    +0.000 A 
ENDROOT
BRANCH   1   8
ATOM      7  C   UNL     1      -4.760   5.460   1.916  0.00  0.00    +0.000 C 
ATOM      8  O   UNL     1      -4.930   4.088   2.173  0.00  0.00    +0.000 OA
ENDBRANCH   1   8
BRANCH   4   9
ATOM      9  C   UNL     1      -9.539   1.598   0.293  0.00  0.00    +0.000 C 
ATOM     10  O   UNL     1     -10.574   1.901   0.819  0.00  0.00    +0.000 OA
BRANCH   9  11
ATOM     11  C   UNL     1      -9.547   0.698  -0.823  0.00  0.00    +0.000 A 
ATOM     12  C   UNL     1      -9.689   1.256  -2.072  0.00  0.00    +0.000 A 
ATOM     13  C   UNL     1      -9.765   0.417  -3.162  0.00  0.00    +0.000 A 
ATOM     14  C   UNL     1      -9.681  -0.941  -2.967  0.00  0.00    +0.000 A 
ATOM     15  C   UNL     1      -9.563  -1.468  -1.772  0.00  0.00    +0.000 A 
ATOM     16  C   UNL     1      -9.477  -0.631  -0.680  0.00  0.00    +0.000 A 
ENDBRANCH   9  11
ENDBRANCH   4   9
BRANCH   5  17
ATOM     17  O   UNL     1      -9.042   4.312  -0.142  0.00  0.00    +0.000 OA
ATOM     18  H   UNL     1      -9.680   4.898   0.338  0.00  0.00    +0.000 HD
ENDBRANCH   5  17
TORSDOF 4
ENDMDL
