REMARK  Name = ox2_orig_f8_ligand
REMARK  5 active torsions:
REMARK  status: ('A' for Active; 'I' for Inactive)
REMARK    1  A    between atoms: C_1  and  O_2
REMARK    2  A    between atoms: O_2  and  C_3
REMARK    3  A    between atoms: C_6  and  C_7
REMARK    4  A    between atoms: C_7  and  C_9
REMARK    5  A    between atoms: C_15  and  O_16
REMARK                            x       y       z     vdW  Elec       q    Type
REMARK                         _______ _______ _______ _____ _____    ______ ____
ROOT
ATOM      1  C   UNL     1       0.921  -1.273   0.732  0.00  0.00    +0.000 A 
ATOM      2  C   UNL     1       1.084   0.022   0.286  0.00  0.00    +0.000 A 
ATOM      3  C   UNL     1       0.572   0.409  -0.931  0.00  0.00    +0.000 A 
ATOM      4  C   UNL     1      -0.095  -0.500  -1.716  0.00  0.00    +0.000 A 
ATOM      5  C   UNL     1      -0.279  -1.806  -1.267  0.00  0.00    +0.000 A 
ATOM      6  C   UNL     1       0.235  -2.180  -0.046  0.00  0.00    +0.000 A 
ENDROOT
BRANCH   1   8
ATOM      7  C   UNL     1       1.313  -2.875   2.457  0.00  0.00    +0.000 C 
ATOM      8  O   UNL     1       1.457  -1.583   1.943  0.00  0.00    +0.000 OA
ENDBRANCH   1   8
BRANCH   4   9
ATOM      9  C   UNL     1      -0.633  -0.061  -3.008  0.00  0.00    +0.000 C 
ATOM     10  O   UNL     1      -1.666  -0.388  -3.244  0.00  0.00    +0.000 OA
BRANCH   9  11
ATOM     11  C   UNL     1      -0.071   0.864  -3.960  0.00  0.00    +0.000 A 
ATOM     12  C   UNL     1       1.278   0.893  -4.180  0.00  0.00    +0.000 A 
ATOM     13  C   UNL     1       1.815   1.769  -5.097  0.00  0.00    +0.000 A 
ATOM     14  C   UNL     1       1.002   2.635  -5.789  0.00  0.00    +0.000 A 
ATOM     15  C   UNL     1      -0.361   2.595  -5.586  0.00  0.00    +0.000 A 
ATOM     16  C   UNL     1      -0.909   1.701  -4.678  0.00  0.00    +0.000 A 
ENDBRANCH   9  11
ENDBRANCH   4   9
BRANCH   5  17
ATOM     17  O   UNL     1      -0.956  -2.686  -2.022  0.00  0.00    +0.000 OA
ATOM     18  H   UNL     1      -1.087  -3.614  -1.703  0.00  0.00    +0.000 HD
ENDBRANCH   5  17
TORSDOF 4
