MODEL 1
REMARK VINA RESULT:      -6.9      0.000      0.000
REMARK  Name = ox2_orig_f8_ligand
REMARK  5 active torsions:
REMARK  status: ('A' for Active; 'I' for Inactive)
REMARK    1  A    between atoms: C_1  and  O_2
REMARK    2  A    between atoms: O_2  and  C_3
REMARK    3  A    between atoms: C_6  and  C_7
REMARK    4  A    between atoms: C_7  and  C_9
REMARK    5  A    between atoms: C_15  and  O_16
REMARK                            x       y       z     vdW  Elec       q    Type
REMARK                         _______ _______ _______ _____ _____    ______ ____
ROOT
ATOM      1  C   UNL     1       0.298   0.086  -1.238  0.00  0.00    +0.000 A 
ATOM      2  C   UNL     1       0.607   1.409  -1.479  0.00  0.00    +0.000 A 
ATOM      3  C   UNL     1       0.483   1.934  -2.745  0.00  0.00    +0.000 A 
ATOM      4  C   UNL     1       0.061   1.136  -3.780  0.00  0.00    +0.000 A 
ATOM      5  C   UNL     1      -0.270  -0.197  -3.544  0.00  0.00    +0.000 A 
ATOM      6  C   UNL     1      -0.145  -0.709  -2.272  0.00  0.00    +0.000 A 
ENDROOT
BRANCH   1   8
ATOM      7  C   UNL     1       0.833  -1.686   0.268  0.00  0.00    +0.000 C 
ATOM      8  O   UNL     1       0.448  -0.362   0.037  0.00  0.00    +0.000 OA
ENDBRANCH   1   8
BRANCH   4   9
ATOM      9  C   UNL     1      -0.065   1.721  -5.120  0.00  0.00    +0.000 C 
ATOM     10  O   UNL     1      -1.073   1.677  -5.579  0.00  0.00    +0.000 OA
BRANCH   9  11
ATOM     11  C   UNL     1       0.899   2.484  -5.873  0.00  0.00    +0.000 A 
ATOM     12  C   UNL     1       2.235   2.230  -5.741  0.00  0.00    +0.000 A 
ATOM     13  C   UNL     1       3.156   2.951  -6.468  0.00  0.00    +0.000 A 
ATOM     14  C   UNL     1       2.742   3.945  -7.322  0.00  0.00    +0.000 A 
ATOM     15  C   UNL     1       1.394   4.190  -7.475  0.00  0.00    +0.000 A 
ATOM     16  C   UNL     1       0.462   3.454  -6.760  0.00  0.00    +0.000 A 
ENDBRANCH   9  11
ENDBRANCH   4   9
BRANCH   5  17
ATOM     17  O   UNL     1      -0.710  -0.968  -4.551  0.00  0.00    +0.000 OA
ATOM     18  H   UNL     1      -1.402  -1.655  -4.382  0.00  0.00    +0.000 HD
ENDBRANCH   5  17
TORSDOF 4
ENDMDL
MODEL 2
REMARK VINA RESULT:      -6.2      1.004      1.620
REMARK  Name = ox2_orig_f8_ligand
REMARK  5 active torsions:
REMARK  status: ('A' for Active; 'I' for Inactive)
REMARK    1  A    between atoms: C_1  and  O_2
REMARK    2  A    between atoms: O_2  and  C_3
REMARK    3  A    between atoms: C_6  and  C_7
REMARK    4  A    between atoms: C_7  and  C_9
REMARK    5  A    between atoms: C_15  and  O_16
REMARK                            x       y       z     vdW  Elec       q    Type
REMARK                         _______ _______ _______ _____ _____    ______ ____
ROOT
ATOM      1  C   UNL     1       0.554   0.116  -0.959  0.00  0.00    +0.000 A 
ATOM      2  C   UNL     1       0.825  -0.602  -2.105  0.00  0.00    +0.000 A 
ATOM      3  C   UNL     1       0.594  -0.049  -3.344  0.00  0.00    +0.000 A 
ATOM      4  C   UNL     1       0.079   1.220  -3.444  0.00  0.00    +0.000 A 
ATOM      5  C   UNL     1      -0.182   1.959  -2.292  0.00  0.00    +0.000 A 
ATOM      6  C   UNL     1       0.056   1.396  -1.059  0.00  0.00    +0.000 A 
ENDROOT
BRANCH   1   8
ATOM      7  C   UNL     1       0.315  -1.785   0.464  0.00  0.00    +0.000 C 
ATOM      8  O   UNL     1       0.805  -0.497   0.229  0.00  0.00    +0.000 OA
ENDBRANCH   1   8
BRANCH   4   9
ATOM      9  C   UNL     1      -0.156   1.787  -4.777  0.00  0.00    +0.000 C 
ATOM     10  O   UNL     1      -1.206   1.785  -5.131  0.00  0.00    +0.000 OA
BRANCH   9  11
ATOM     11  C   UNL     1       0.761   2.488  -5.640  0.00  0.00    +0.000 A 
ATOM     12  C   UNL     1       2.109   2.297  -5.517  0.00  0.00    +0.000 A 
ATOM     13  C   UNL     1       2.984   2.959  -6.349  0.00  0.00    +0.000 A 
ATOM     14  C   UNL     1       2.513   3.831  -7.301  0.00  0.00    +0.000 A 
ATOM     15  C   UNL     1       1.154   4.011  -7.443  0.00  0.00    +0.000 A 
ATOM     16  C   UNL     1       0.267   3.333  -6.621  0.00  0.00    +0.000 A 
ENDBRANCH   9  11
ENDBRANCH   4   9
BRANCH   5  17
ATOM     17  O   UNL     1      -0.658   3.211  -2.392  0.00  0.00    +0.000 OA
ATOM     18  H   UNL     1      -1.157   3.488  -3.201  0.00  0.00    +0.000 HD
ENDBRANCH   5  17
TORSDOF 4
ENDMDL
MODEL 3
REMARK VINA RESULT:      -5.8      2.888      8.190
REMARK  Name = ox2_orig_f8_ligand
REMARK  5 active torsions:
REMARK  status: ('A' for Active; 'I' for Inactive)
REMARK    1  A    between atoms: C_1  and  O_2
REMARK    2  A    between atoms: O_2  and  C_3
REMARK    3  A    between atoms: C_6  and  C_7
REMARK    4  A    between atoms: C_7  and  C_9
REMARK    5  A    between atoms: C_15  and  O_16
REMARK                            x       y       z     vdW  Elec       q    Type
REMARK                         _______ _______ _______ _____ _____    ______ ____
ROOT
ATOM      1  C   UNL     1       0.132   0.459  -1.658  0.00  0.00    +0.000 A 
ATOM      2  C   UNL     1       0.787   0.400  -0.445  0.00  0.00    +0.000 A 
ATOM      3  C   UNL     1       0.781  -0.761   0.294  0.00  0.00    +0.000 A 
ATOM      4  C   UNL     1       0.109  -1.866  -0.169  0.00  0.00    +0.000 A 
ATOM      5  C   UNL     1      -0.541  -1.822  -1.401  0.00  0.00    +0.000 A 
ATOM      6  C   UNL     1      -0.525  -0.656  -2.132  0.00  0.00    +0.000 A 
ENDROOT
BRANCH   1   8
ATOM      7  C   UNL     1       0.090   1.651  -3.725  0.00  0.00    +0.000 C 
ATOM      8  O   UNL     1       0.179   1.640  -2.330  0.00  0.00    +0.000 OA
ENDBRANCH   1   8
BRANCH   4   9
ATOM      9  C   UNL     1       0.120  -3.092   0.637  0.00  0.00    +0.000 C 
ATOM     10  O   UNL     1       0.612  -3.974   0.178  0.00  0.00    +0.000 OA
BRANCH   9  11
ATOM     11  C   UNL     1      -0.283  -3.282   2.007  0.00  0.00    +0.000 A 
ATOM     12  C   UNL     1       0.574  -2.974   3.028  0.00  0.00    +0.000 A 
ATOM     13  C   UNL     1       0.186  -3.146   4.338  0.00  0.00    +0.000 A 
ATOM     14  C   UNL     1      -1.061  -3.644   4.634  0.00  0.00    +0.000 A 
ATOM     15  C   UNL     1      -1.935  -3.937   3.609  0.00  0.00    +0.000 A 
ATOM     16  C   UNL     1      -1.557  -3.747   2.288  0.00  0.00    +0.000 A 
ENDBRANCH   9  11
ENDBRANCH   4   9
BRANCH   5  17
ATOM     17  O   UNL     1      -1.172  -2.911  -1.866  0.00  0.00    +0.000 OA
ATOM     18  H   UNL     1      -1.369  -3.667  -1.257  0.00  0.00    +0.000 HD
ENDBRANCH   5  17
TORSDOF 4
ENDMDL
MODEL 4
REMARK VINA RESULT:      -5.7      2.041      7.072
REMARK  Name = ox2_orig_f8_ligand
REMARK  5 active torsions:
REMARK  status: ('A' for Active; 'I' for Inactive)
REMARK    1  A    between atoms: C_1  and  O_2
REMARK    2  A    between atoms: O_2  and  C_3
REMARK    3  A    between atoms: C_6  and  C_7
REMARK    4  A    between atoms: C_7  and  C_9
REMARK    5  A    between atoms: C_15  and  O_16
REMARK                            x       y       z     vdW  Elec       q    Type
REMARK                         _______ _______ _______ _____ _____    ______ ____
ROOT
ATOM      1  C   UNL     1      -0.405   0.714  -4.125  0.00  0.00    +0.000 A 
ATOM      2  C   UNL     1      -0.815  -0.514  -3.649  0.00  0.00    +0.000 A 
ATOM      3  C   UNL     1      -0.567  -0.872  -2.344  0.00  0.00    +0.000 A 
ATOM      4  C   UNL     1       0.105  -0.011  -1.510  0.00  0.00    +0.000 A 
ATOM      5  C   UNL     1       0.508   1.238  -1.978  0.00  0.00    +0.000 A 
ATOM      6  C   UNL     1       0.251   1.587  -3.284  0.00  0.00    +0.000 A 
ENDROOT
BRANCH   1   8
ATOM      7  C   UNL     1      -0.813   2.328  -5.835  0.00  0.00    +0.000 C 
ATOM      8  O   UNL     1      -0.683   0.998  -5.426  0.00  0.00    +0.000 OA
ENDBRANCH   1   8
BRANCH   4   9
ATOM      9  C   UNL     1       0.354  -0.417  -0.123  0.00  0.00    +0.000 C 
ATOM     10  O   UNL     1       0.303   0.387   0.638  0.00  0.00    +0.000 OA
BRANCH   9  11
ATOM     11  C   UNL     1       0.511  -1.742   0.422  0.00  0.00    +0.000 A 
ATOM     12  C   UNL     1      -0.175  -2.795  -0.116  0.00  0.00    +0.000 A 
ATOM     13  C   UNL     1      -0.018  -4.063   0.398  0.00  0.00    +0.000 A 
ATOM     14  C   UNL     1       0.818  -4.281   1.467  0.00  0.00    +0.000 A 
ATOM     15  C   UNL     1       1.528  -3.226   1.999  0.00  0.00    +0.000 A 
ATOM     16  C   UNL     1       1.389  -1.950   1.473  0.00  0.00    +0.000 A 
ENDBRANCH   9  11
ENDBRANCH   4   9
BRANCH   5  17
ATOM     17  O   UNL     1       1.139   2.091  -1.154  0.00  0.00    +0.000 OA
ATOM     18  H   UNL     1       2.066   1.902  -0.862  0.00  0.00    +0.000 HD
ENDBRANCH   5  17
TORSDOF 4
ENDMDL
MODEL 5
REMARK VINA RESULT:      -5.5      2.769      8.017
REMARK  Name = ox2_orig_f8_ligand
REMARK  5 active torsions:
REMARK  status: ('A' for Active; 'I' for Inactive)
REMARK    1  A    between atoms: C_1  and  O_2
REMARK    2  A    between atoms: O_2  and  C_3
REMARK    3  A    between atoms: C_6  and  C_7
REMARK    4  A    between atoms: C_7  and  C_9
REMARK    5  A    between atoms: C_15  and  O_16
REMARK                            x       y       z     vdW  Elec       q    Type
REMARK                         _______ _______ _______ _____ _____    ______ ____
ROOT
ATOM      1  C   UNL     1       0.219   0.293  -1.912  0.00  0.00    +0.000 A 
ATOM      2  C   UNL     1      -0.359  -0.903  -2.285  0.00  0.00    +0.000 A 
ATOM      3  C   UNL     1      -0.511  -1.919  -1.369  0.00  0.00    +0.000 A 
ATOM      4  C   UNL     1      -0.074  -1.750  -0.078  0.00  0.00    +0.000 A 
ATOM      5  C   UNL     1       0.496  -0.540   0.313  0.00  0.00    +0.000 A 
ATOM      6  C   UNL     1       0.639   0.469  -0.612  0.00  0.00    +0.000 A 
ENDROOT
BRANCH   1   8
ATOM      7  C   UNL     1       0.826   0.907  -4.137  0.00  0.00    +0.000 C 
ATOM      8  O   UNL     1       0.338   1.249  -2.872  0.00  0.00    +0.000 OA
ENDBRANCH   1   8
BRANCH   4   9
ATOM      9  C   UNL     1      -0.250  -2.848   0.879  0.00  0.00    +0.000 C 
ATOM     10  O   UNL     1      -0.968  -2.667   1.704  0.00  0.00    +0.000 OA
BRANCH   9  11
ATOM     11  C   UNL     1       0.263  -4.194   0.823  0.00  0.00    +0.000 A 
ATOM     12  C   UNL     1      -0.246  -5.089  -0.076  0.00  0.00    +0.000 A 
ATOM     13  C   UNL     1       0.250  -6.372  -0.138  0.00  0.00    +0.000 A 
ATOM     14  C   UNL     1       1.251  -6.772   0.715  0.00  0.00    +0.000 A 
ATOM     15  C   UNL     1       1.782  -5.866   1.609  0.00  0.00    +0.000 A 
ATOM     16  C   UNL     1       1.300  -4.567   1.662  0.00  0.00    +0.000 A 
ENDBRANCH   9  11
ENDBRANCH   4   9
BRANCH   5  17
ATOM     17  O   UNL     1       0.896  -0.366   1.583  0.00  0.00    +0.000 OA
ATOM     18  H   UNL     1       1.236   0.515   1.878  0.00  0.00    +0.000 HD
ENDBRANCH   5  17
TORSDOF 4
ENDMDL
MODEL 6
REMARK VINA RESULT:      -5.5      1.672      6.019
REMARK  Name = ox2_orig_f8_ligand
REMARK  5 active torsions:
REMARK  status: ('A' for Active; 'I' for Inactive)
REMARK    1  A    between atoms: C_1  and  O_2
REMARK    2  A    between atoms: O_2  and  C_3
REMARK    3  A    between atoms: C_6  and  C_7
REMARK    4  A    between atoms: C_7  and  C_9
REMARK    5  A    between atoms: C_15  and  O_16
REMARK                            x       y       z     vdW  Elec       q    Type
REMARK                         _______ _______ _______ _____ _____    ______ ____
ROOT
ATOM      1  C   UNL     1       1.979   3.810  -7.374  0.00  0.00    +0.000 A 
ATOM      2  C   UNL     1       2.536   2.878  -6.523  0.00  0.00    +0.000 A 
ATOM      3  C   UNL     1       1.739   2.144  -5.675  0.00  0.00    +0.000 A 
ATOM      4  C   UNL     1       0.380   2.346  -5.663  0.00  0.00    +0.000 A 
ATOM      5  C   UNL     1      -0.194   3.273  -6.530  0.00  0.00    +0.000 A 
ATOM      6  C   UNL     1       0.614   3.999  -7.376  0.00  0.00    +0.000 A 
ENDROOT
BRANCH   1   8
ATOM      7  C   UNL     1       4.197   4.212  -8.155  0.00  0.00    +0.000 C 
ATOM      8  O   UNL     1       2.830   4.499  -8.180  0.00  0.00    +0.000 OA
ENDBRANCH   1   8
BRANCH   4   9
ATOM      9  C   UNL     1      -0.448   1.549  -4.752  0.00  0.00    +0.000 C 
ATOM     10  O   UNL     1      -1.389   1.143  -5.175  0.00  0.00    +0.000 OA
BRANCH   9  11
ATOM     11  C   UNL     1      -0.146   1.086  -3.420  0.00  0.00    +0.000 A 
ATOM     12  C   UNL     1       0.366   1.946  -2.490  0.00  0.00    +0.000 A 
ATOM     13  C   UNL     1       0.645   1.507  -1.215  0.00  0.00    +0.000 A 
ATOM     14  C   UNL     1       0.426   0.194  -0.869  0.00  0.00    +0.000 A 
ATOM     15  C   UNL     1      -0.110  -0.672  -1.797  0.00  0.00    +0.000 A 
ATOM     16  C   UNL     1      -0.411  -0.230  -3.077  0.00  0.00    +0.000 A 
ENDBRANCH   9  11
ENDBRANCH   4   9
BRANCH   5  17
ATOM     17  O   UNL     1      -1.525   3.450  -6.539  0.00  0.00    +0.000 OA
ATOM     18  H   UNL     1      -1.945   4.082  -5.902  0.00  0.00    +0.000 HD
ENDBRANCH   5  17
TORSDOF 4
ENDMDL
MODEL 7
REMARK VINA RESULT:      -5.2      4.286      9.781
REMARK  Name = ox2_orig_f8_ligand
REMARK  5 active torsions:
REMARK  status: ('A' for Active; 'I' for Inactive)
REMARK    1  A    between atoms: C_1  and  O_2
REMARK    2  A    between atoms: O_2  and  C_3
REMARK    3  A    between atoms: C_6  and  C_7
REMARK    4  A    between atoms: C_7  and  C_9
REMARK    5  A    between atoms: C_15  and  O_16
REMARK                            x       y       z     vdW  Elec       q    Type
REMARK                         _______ _______ _______ _____ _____    ______ ____
ROOT
ATOM      1  C   UNL     1       0.623  -1.210  -0.099  0.00  0.00    +0.000 A 
ATOM      2  C   UNL     1       1.354  -0.918   1.033  0.00  0.00    +0.000 A 
ATOM      3  C   UNL     1       1.178  -1.650   2.185  0.00  0.00    +0.000 A 
ATOM      4  C   UNL     1       0.260  -2.672   2.215  0.00  0.00    +0.000 A 
ATOM      5  C   UNL     1      -0.472  -2.985   1.071  0.00  0.00    +0.000 A 
ATOM      6  C   UNL     1      -0.284  -2.247  -0.075  0.00  0.00    +0.000 A 
ENDROOT
BRANCH   1   8
ATOM      7  C   UNL     1       0.459   0.901  -1.200  0.00  0.00    +0.000 C 
ATOM      8  O   UNL     1       0.849  -0.441  -1.198  0.00  0.00    +0.000 OA
ENDBRANCH   1   8
BRANCH   4   9
ATOM      9  C   UNL     1       0.093  -3.438   3.454  0.00  0.00    +0.000 C 
ATOM     10  O   UNL     1      -0.908  -3.390   3.928  0.00  0.00    +0.000 OA
BRANCH   9  11
ATOM     11  C   UNL     1       0.998  -4.374   4.074  0.00  0.00    +0.000 A 
ATOM     12  C   UNL     1       1.424  -5.478   3.389  0.00  0.00    +0.000 A 
ATOM     13  C   UNL     1       2.297  -6.367   3.976  0.00  0.00    +0.000 A 
ATOM     14  C   UNL     1       2.737  -6.161   5.262  0.00  0.00    +0.000 A 
ATOM     15  C   UNL     1       2.328  -5.038   5.949  0.00  0.00    +0.000 A 
ATOM     16  C   UNL     1       1.464  -4.129   5.355  0.00  0.00    +0.000 A 
ENDBRANCH   9  11
ENDBRANCH   4   9
BRANCH   5  17
ATOM     17  O   UNL     1      -1.348  -4.002   1.093  0.00  0.00    +0.000 OA
ATOM     18  H   UNL     1      -2.026  -4.056   1.813  0.00  0.00    +0.000 HD
ENDBRANCH   5  17
TORSDOF 4
ENDMDL
MODEL 8
REMARK VINA RESULT:      -5.1      1.714      3.024
REMARK  Name = ox2_orig_f8_ligand
REMARK  5 active torsions:
REMARK  status: ('A' for Active; 'I' for Inactive)
REMARK    1  A    between atoms: C_1  and  O_2
REMARK    2  A    between atoms: O_2  and  C_3
REMARK    3  A    between atoms: C_6  and  C_7
REMARK    4  A    between atoms: C_7  and  C_9
REMARK    5  A    between atoms: C_15  and  O_16
REMARK                            x       y       z     vdW  Elec       q    Type
REMARK                         _______ _______ _______ _____ _____    ______ ____
ROOT
ATOM      1  C   UNL     1      -0.357   0.722  -3.864  0.00  0.00    +0.000 A 
ATOM      2  C   UNL     1       0.996   0.981  -3.795  0.00  0.00    +0.000 A 
ATOM      3  C   UNL     1       1.598   1.791  -4.729  0.00  0.00    +0.000 A 
ATOM      4  C   UNL     1       0.855   2.337  -5.747  0.00  0.00    +0.000 A 
ATOM      5  C   UNL     1      -0.516   2.095  -5.816  0.00  0.00    +0.000 A 
ATOM      6  C   UNL     1      -1.108   1.285  -4.874  0.00  0.00    +0.000 A 
ENDROOT
BRANCH   1   8
ATOM      7  C   UNL     1      -0.149  -0.365  -1.750  0.00  0.00    +0.000 C 
ATOM      8  O   UNL     1      -0.882  -0.090  -2.908  0.00  0.00    +0.000 OA
ENDBRANCH   1   8
BRANCH   4   9
ATOM      9  C   UNL     1       1.521   3.199  -6.729  0.00  0.00    +0.000 C 
ATOM     10  O   UNL     1       0.921   4.042  -7.127  0.00  0.00    +0.000 OA
BRANCH   9  11
ATOM     11  C   UNL     1       2.901   3.205  -7.146  0.00  0.00    +0.000 A 
ATOM     12  C   UNL     1       3.781   4.102  -6.607  0.00  0.00    +0.000 A 
ATOM     13  C   UNL     1       5.102   4.100  -6.997  0.00  0.00    +0.000 A 
ATOM     14  C   UNL     1       5.546   3.208  -7.944  0.00  0.00    +0.000 A 
ATOM     15  C   UNL     1       4.667   2.288  -8.474  0.00  0.00    +0.000 A 
ATOM     16  C   UNL     1       3.340   2.272  -8.071  0.00  0.00    +0.000 A 
ENDBRANCH   9  11
ENDBRANCH   4   9
BRANCH   5  17
ATOM     17  O   UNL     1      -1.247   2.652  -6.795  0.00  0.00    +0.000 OA
ATOM     18  H   UNL     1      -2.081   3.137  -6.574  0.00  0.00    +0.000 HD
ENDBRANCH   5  17
TORSDOF 4
ENDMDL
MODEL 9
REMARK VINA RESULT:      -5.1      3.178      8.847
REMARK  Name = ox2_orig_f8_ligand
REMARK  5 active torsions:
REMARK  status: ('A' for Active; 'I' for Inactive)
REMARK    1  A    between atoms: C_1  and  O_2
REMARK    2  A    between atoms: O_2  and  C_3
REMARK    3  A    between atoms: C_6  and  C_7
REMARK    4  A    between atoms: C_7  and  C_9
REMARK    5  A    between atoms: C_15  and  O_16
REMARK                            x       y       z     vdW  Elec       q    Type
REMARK                         _______ _______ _______ _____ _____    ______ ____
ROOT
ATOM      1  C   UNL     1       0.104  -0.138  -1.470  0.00  0.00    +0.000 A 
ATOM      2  C   UNL     1      -0.441  -1.382  -1.708  0.00  0.00    +0.000 A 
ATOM      3  C   UNL     1      -0.374  -2.367  -0.750  0.00  0.00    +0.000 A 
ATOM      4  C   UNL     1       0.251  -2.119   0.448  0.00  0.00    +0.000 A 
ATOM      5  C   UNL     1       0.791  -0.860   0.704  0.00  0.00    +0.000 A 
ATOM      6  C   UNL     1       0.714   0.118  -0.261  0.00  0.00    +0.000 A 
ENDROOT
BRANCH   1   8
ATOM      7  C   UNL     1       0.485   0.485  -3.742  0.00  0.00    +0.000 C 
ATOM      8  O   UNL     1       0.002   0.784  -2.465  0.00  0.00    +0.000 OA
ENDBRANCH   1   8
BRANCH   4   9
ATOM      9  C   UNL     1       0.308  -3.185   1.453  0.00  0.00    +0.000 C 
ATOM     10  O   UNL     1       1.234  -3.795   1.468  0.00  0.00    +0.000 OA
BRANCH   9  11
ATOM     11  C   UNL     1      -0.605  -3.466   2.533  0.00  0.00    +0.000 A 
ATOM     12  C   UNL     1      -1.893  -3.840   2.268  0.00  0.00    +0.000 A 
ATOM     13  C   UNL     1      -2.763  -4.119   3.298  0.00  0.00    +0.000 A 
ATOM     14  C   UNL     1      -2.350  -4.008   4.605  0.00  0.00    +0.000 A 
ATOM     15  C   UNL     1      -1.047  -3.652   4.877  0.00  0.00    +0.000 A 
ATOM     16  C   UNL     1      -0.161  -3.389   3.843  0.00  0.00    +0.000 A 
ENDBRANCH   9  11
ENDBRANCH   4   9
BRANCH   5  17
ATOM     17  O   UNL     1       1.376  -0.609   1.886  0.00  0.00    +0.000 OA
ATOM     18  H   UNL     1       2.349  -0.753   1.998  0.00  0.00    +0.000 HD
ENDBRANCH   5  17
TORSDOF 4
ENDMDL
