REMARK  Name = ox1_orig_f12_ligand
REMARK  5 active torsions:
REMARK  status: ('A' for Active; 'I' for Inactive)
REMARK    1  A    between atoms: C_1  and  O_2
REMARK    2  A    between atoms: O_2  and  C_3
REMARK    3  A    between atoms: C_6  and  C_7
REMARK    4  A    between atoms: C_7  and  C_9
REMARK    5  A    between atoms: C_15  and  O_16
REMARK                            x       y       z     vdW  Elec       q    Type
REMARK                         _______ _______ _______ _____ _____    ______ ____
ROOT
ATOM      1  C   UNL     1      -2.441  -2.541  -4.691  0.00  0.00    +0.000 A 
ATOM      2  C   UNL     1      -3.599  -2.892  -4.005  0.00  0.00    +0.000 A 
ATOM      3  C   UNL     1      -4.147  -2.016  -3.078  0.00  0.00    +0.000 A 
ATOM      4  C   UNL     1      -3.542  -0.789  -2.819  0.00  0.00    +0.000 A 
ATOM      5  C   UNL     1      -2.389  -0.441  -3.513  0.00  0.00    +0.000 A 
ATOM      6  C   UNL     1      -1.850  -1.315  -4.444  0.00  0.00    +0.000 A 
ENDROOT
BRANCH   1   8
ATOM      7  C   UNL     1      -0.803  -3.091  -6.362  0.00  0.00    +0.000 C 
ATOM      8  O   UNL     1      -1.932  -3.436  -5.594  0.00  0.00    +0.000 OA
ENDBRANCH   1   8
BRANCH   4   9
ATOM      9  C   UNL     1      -4.120   0.178  -1.821  0.00  0.00    +0.000 C 
ATOM     10  O   UNL     1      -3.615   1.279  -1.738  0.00  0.00    +0.000 OA
BRANCH   9  11
ATOM     11  C   UNL     1      -5.292  -0.136  -0.972  0.00  0.00    +0.000 A 
ATOM     12  C   UNL     1      -5.420  -1.361  -0.329  0.00  0.00    +0.000 A 
ATOM     13  C   UNL     1      -6.522  -1.633   0.450  0.00  0.00    +0.000 A 
ATOM     14  C   UNL     1      -7.518  -0.682   0.602  0.00  0.00    +0.000 A 
ATOM     15  C   UNL     1      -7.397   0.554  -0.019  0.00  0.00    +0.000 A 
ATOM     16  C   UNL     1      -6.277   0.845  -0.792  0.00  0.00    +0.000 A 
ENDBRANCH   9  11
ENDBRANCH   4   9
BRANCH   5  17
ATOM     17  O   UNL     1      -1.811   0.761  -3.266  0.00  0.00    +0.000 OA
ATOM     18  H   UNL     1      -0.989   1.025  -3.752  0.00  0.00    +0.000 HD
ENDBRANCH   5  17
TORSDOF 4
