REMARK  Name = /Users/cafierom/python_mac/peptidebuilder/runs/oxybenzone/dock/ox1_orig_f12_o3cof/ox1_orig_f12_o3cof_protein.pdb
REMARK                            x       y       z     vdW  Elec       q    Type
REMARK                         _______ _______ _______ _____ _____    ______ ____
ATOM      1  N   PHE A   1     -11.426   2.690  -1.708  0.00  0.00    +0.000 NA
ATOM      2  CA  PHE A   1     -10.294   3.575  -1.965  0.00  0.00    +0.000 C 
ATOM      3  C   PHE A   1      -9.572   3.107  -3.227  0.00  0.00    +0.000 C 
ATOM      4  O   PHE A   1      -9.821   2.022  -3.711  0.00  0.00    +0.000 OA
ATOM      5  CB  PHE A   1      -9.299   3.543  -0.797  0.00  0.00    +0.000 C 
ATOM      6  CG  PHE A   1      -9.875   3.906   0.553  0.00  0.00    +0.000 A 
ATOM      7  CD1 PHE A   1     -11.108   4.522   0.688  0.00  0.00    +0.000 A 
ATOM      8  CD2 PHE A   1      -9.142   3.641   1.700  0.00  0.00    +0.000 A 
ATOM      9  CE1 PHE A   1     -11.602   4.849   1.937  0.00  0.00    +0.000 A 
ATOM     10  CE2 PHE A   1      -9.634   3.968   2.950  0.00  0.00    +0.000 A 
ATOM     11  CZ  PHE A   1     -10.865   4.574   3.066  0.00  0.00    +0.000 A 
ATOM     12  N   GLY A   2      -8.680   3.908  -3.751  0.00  0.00    +0.000 N 
ATOM     13  CA  GLY A   2      -7.849   3.510  -4.867  0.00  0.00    +0.000 C 
ATOM     14  C   GLY A   2      -6.456   3.259  -4.323  0.00  0.00    +0.000 C 
ATOM     15  O   GLY A   2      -6.294   2.997  -3.138  0.00  0.00    +0.000 OA
ATOM     16  N   ARG A   3      -5.444   3.372  -5.183  0.00  0.00    +0.000 N 
ATOM     17  CA  ARG A   3      -4.081   3.190  -4.696  0.00  0.00    +0.000 C 
ATOM     18  C   ARG A   3      -3.646   4.390  -3.874  0.00  0.00    +0.000 C 
ATOM     19  O   ARG A   3      -4.055   5.520  -4.134  0.00  0.00    +0.000 OA
ATOM     20  CB  ARG A   3      -3.112   2.980  -5.858  0.00  0.00    +0.000 C 
ATOM     21  CG  ARG A   3      -3.340   1.654  -6.554  0.00  0.00    +0.000 C 
ATOM     22  CD  ARG A   3      -2.247   1.365  -7.561  0.00  0.00    +0.000 C 
ATOM     23  NE  ARG A   3      -2.489   0.094  -8.245  0.00  0.00    +0.000 NA
ATOM     24  CZ  ARG A   3      -1.656  -0.456  -9.113  0.00  0.00    +0.000 C 
ATOM     25  NH1 ARG A   3      -0.515   0.132  -9.418  0.00  0.00    +0.000 N 
ATOM     26  NH2 ARG A   3      -1.971  -1.611  -9.686  0.00  0.00    +0.000 NA
ATOM     27  N   GLY A   4      -2.825   4.137  -2.876  0.00  0.00    +0.000 N 
ATOM     28  CA  GLY A   4      -2.359   5.182  -1.984  0.00  0.00    +0.000 C 
ATOM     29  C   GLY A   4      -1.463   4.540  -0.949  0.00  0.00    +0.000 C 
ATOM     30  O   GLY A   4      -1.011   3.421  -1.142  0.00  0.00    +0.000 OA
ATOM     31  N   LYS A   5      -1.209   5.262   0.131  0.00  0.00    +0.000 N 
ATOM     32  CA  LYS A   5      -0.379   4.705   1.184  0.00  0.00    +0.000 C 
ATOM     33  C   LYS A   5      -1.185   3.717   2.006  0.00  0.00    +0.000 C 
ATOM     34  O   LYS A   5      -2.374   3.907   2.234  0.00  0.00    +0.000 OA
ATOM     35  CB  LYS A   5       0.187   5.809   2.070  0.00  0.00    +0.000 C 
ATOM     36  CG  LYS A   5       1.185   6.684   1.333  0.00  0.00    +0.000 C 
ATOM     37  CD  LYS A   5       1.907   7.620   2.283  0.00  0.00    +0.000 C 
ATOM     38  CE  LYS A   5       2.962   8.425   1.554  0.00  0.00    +0.000 C 
ATOM     39  NZ  LYS A   5       3.719   9.294   2.482  0.00  0.00    +0.000 N 
ATOM     40  N   GLY A   6      -0.516   2.646   2.462  0.00  0.00    +0.000 N 
ATOM     41  CA  GLY A   6      -1.150   1.632   3.280  0.00  0.00    +0.000 C 
ATOM     42  C   GLY A   6      -1.298   0.349   2.497  0.00  0.00    +0.000 C 
ATOM     43  O   GLY A   6      -1.589   0.365   1.308  0.00  0.00    +0.000 OA
ATOM     44  N   GLY A   7      -1.092  -0.760   3.162  0.00  0.00    +0.000 N 
ATOM     45  CA  GLY A   7      -1.185  -2.052   2.516  0.00  0.00    +0.000 C 
ATOM     46  C   GLY A   7       0.046  -2.316   1.673  0.00  0.00    +0.000 C 
ATOM     47  O   GLY A   7       1.108  -1.760   1.908  0.00  0.00    +0.000 OA
ATOM     48  N   GLY A   8      -0.127  -3.161   0.678  0.00  0.00    +0.000 N 
ATOM     49  CA  GLY A   8       0.996  -3.526  -0.163  0.00  0.00    +0.000 C 
ATOM     50  C   GLY A   8       1.489  -4.907   0.203  0.00  0.00    +0.000 C 
ATOM     51  O   GLY A   8       1.318  -5.357   1.327  0.00  0.00    +0.000 OA
ATOM     52  N   ASP A   9       2.090  -5.573  -0.757  0.00  0.00    +0.000 N 
ATOM     53  CA  ASP A   9       2.560  -6.938  -0.603  0.00  0.00    +0.000 C 
ATOM     54  C   ASP A   9       4.077  -6.979  -0.448  0.00  0.00    +0.000 C 
ATOM     55  O   ASP A   9       4.697  -8.020  -0.658  0.00  0.00    +0.000 OA
ATOM     56  CB  ASP A   9       2.120  -7.751  -1.829  0.00  0.00    +0.000 C 
ATOM     57  CG  ASP A   9       2.060  -9.257  -1.593  0.00  0.00    +0.000 C 
ATOM     58  OD1 ASP A   9       2.049  -9.691  -0.427  0.00  0.00    +0.000 OA
ATOM     59  OD2 ASP A   9       1.999  -9.991  -2.596  0.00  0.00    +0.000 OA
ATOM     60  N   GLY A  10       4.672  -5.843  -0.094  0.00  0.00    +0.000 N 
ATOM     61  CA  GLY A  10       6.104  -5.728   0.104  0.00  0.00    +0.000 C 
ATOM     62  C   GLY A  10       6.377  -4.893   1.333  0.00  0.00    +0.000 C 
ATOM     63  O   GLY A  10       5.448  -4.385   1.956  0.00  0.00    +0.000 OA
ATOM     64  N   GLU A  11       7.638  -4.723   1.692  0.00  0.00    +0.000 N 
ATOM     65  CA  GLU A  11       7.988  -3.952   2.882  0.00  0.00    +0.000 C 
ATOM     66  C   GLU A  11       8.071  -2.458   2.607  0.00  0.00    +0.000 C 
ATOM     67  O   GLU A  11       7.773  -1.648   3.478  0.00  0.00    +0.000 OA
ATOM     68  CB  GLU A  11       9.314  -4.432   3.477  0.00  0.00    +0.000 C 
ATOM     69  CG  GLU A  11       9.172  -5.779   4.165  0.00  0.00    +0.000 C 
ATOM     70  CD  GLU A  11      10.359  -6.115   5.051  0.00  0.00    +0.000 C 
ATOM     71  OE1 GLU A  11      11.402  -5.457   4.922  0.00  0.00    +0.000 OA
ATOM     72  OE2 GLU A  11      10.223  -7.032   5.881  0.00  0.00    +0.000 OA
ATOM     73  N   GLY A  12       8.474  -2.098   1.404  0.00  0.00    +0.000 N 
ATOM     74  CA  GLY A  12       8.598  -0.696   1.043  0.00  0.00    +0.000 C 
ATOM     75  C   GLY A  12       7.585  -0.364  -0.029  0.00  0.00    +0.000 C 
ATOM     76  O   GLY A  12       6.547  -1.012  -0.129  0.00  0.00    +0.000 OA
ATOM     77  N   ILE A  13       7.895   0.638  -0.826  0.00  0.00    +0.000 N 
ATOM     78  CA  ILE A  13       7.036   0.974  -1.947  0.00  0.00    +0.000 C 
ATOM     79  C   ILE A  13       7.340  -0.011  -3.072  0.00  0.00    +0.000 C 
ATOM     80  O   ILE A  13       8.496  -0.236  -3.405  0.00  0.00    +0.000 OA
ATOM     81  CB  ILE A  13       7.285   2.421  -2.411  0.00  0.00    +0.000 C 
ATOM     82  CG1 ILE A  13       6.983   3.388  -1.268  0.00  0.00    +0.000 C 
ATOM     83  CG2 ILE A  13       6.426   2.736  -3.622  0.00  0.00    +0.000 C 
ATOM     84  CD1 ILE A  13       7.380   4.822  -1.574  0.00  0.00    +0.000 C 
ATOM     85  N   GLY A  14       6.300  -0.598  -3.624  0.00  0.00    +0.000 N 
ATOM     86  CA  GLY A  14       6.490  -1.567  -4.688  0.00  0.00    +0.000 C 
ATOM     87  C   GLY A  14       6.092  -2.951  -4.240  0.00  0.00    +0.000 C 
ATOM     88  O   GLY A  14       6.839  -3.914  -4.398  0.00  0.00    +0.000 OA
ATOM     89  N   GLY A  15       4.889  -3.030  -3.653  0.00  0.00    +0.000 N 
ATOM     90  CA  GLY A  15       4.355  -4.300  -3.214  0.00  0.00    +0.000 C 
ATOM     91  C   GLY A  15       2.984  -4.481  -3.822  0.00  0.00    +0.000 C 
ATOM     92  O   GLY A  15       2.720  -3.996  -4.917  0.00  0.00    +0.000 OA
ATOM     93  N   GLY A  16       2.135  -5.158  -3.102  0.00  0.00    +0.000 N 
ATOM     94  CA  GLY A  16       0.774  -5.371  -3.546  0.00  0.00    +0.000 C 
ATOM     95  C   GLY A  16      -0.082  -5.576  -2.321  0.00  0.00    +0.000 C 
ATOM     96  O   GLY A  16       0.365  -5.311  -1.211  0.00  0.00    +0.000 OA
ATOM     97  N   LEU A  17      -1.314  -6.027  -2.524  0.00  0.00    +0.000 NA
ATOM     98  CA  LEU A  17      -2.184  -6.243  -1.386  0.00  0.00    +0.000 C 
ATOM     99  C   LEU A  17      -1.760  -7.472  -0.602  0.00  0.00    +0.000 C 
ATOM    100  O   LEU A  17      -1.402  -8.497  -1.176  0.00  0.00    +0.000 OA
ATOM    101  CB  LEU A  17      -3.636  -6.385  -1.852  0.00  0.00    +0.000 C 
ATOM    102  CG  LEU A  17      -4.300  -5.046  -2.181  0.00  0.00    +0.000 C 
ATOM    103  CD1 LEU A  17      -4.583  -4.274  -0.911  0.00  0.00    +0.000 C 
ATOM    104  CD2 LEU A  17      -5.577  -5.265  -2.955  0.00  0.00    +0.000 C 
ATOM    105  N   GLY A  18      -1.800  -7.355   0.737  0.00  0.00    +0.000 N 
ATOM    106  CA  GLY A  18      -1.407  -8.439   1.624  0.00  0.00    +0.000 C 
ATOM    107  C   GLY A  18       0.098  -8.470   1.784  0.00  0.00    +0.000 C 
ATOM    108  O   GLY A  18       0.825  -7.783   1.078  0.00  0.00    +0.000 OA
ATOM    109  N   GLY A  19       0.567  -9.284   2.710  0.00  0.00    +0.000 N 
ATOM    110  CA  GLY A  19       1.998  -9.406   2.941  0.00  0.00    +0.000 C 
ATOM    111  C   GLY A  19       2.485  -8.402   3.970  0.00  0.00    +0.000 C 
ATOM    112  O   GLY A  19       1.714  -7.888   4.766  0.00  0.00    +0.000 OA
ATOM    113  N   SER A  20       3.777  -8.149   3.964  0.00  0.00    +0.000 N 
ATOM    114  CA  SER A  20       4.401  -7.270   4.938  0.00  0.00    +0.000 C 
ATOM    115  C   SER A  20       4.418  -5.838   4.437  0.00  0.00    +0.000 C 
ATOM    116  O   SER A  20       5.177  -5.519   3.528  0.00  0.00    +0.000 OA
ATOM    117  CB  SER A  20       5.839  -7.699   5.208  0.00  0.00    +0.000 C 
ATOM    118  OG  SER A  20       5.916  -9.068   5.542  0.00  0.00    +0.000 OA
ATOM    119  N   GLY A  21       3.608  -4.982   5.049  0.00  0.00    +0.000 N 
ATOM    120  CA  GLY A  21       3.623  -3.554   4.746  0.00  0.00    +0.000 C 
ATOM    121  C   GLY A  21       3.627  -3.238   3.264  0.00  0.00    +0.000 C 
ATOM    122  O   GLY A  21       3.040  -3.951   2.454  0.00  0.00    +0.000 OA
ATOM    123  N   GLY A  22       4.298  -2.150   2.924  0.00  0.00    +0.000 N 
ATOM    124  CA  GLY A  22       4.327  -1.678   1.555  0.00  0.00    +0.000 C 
ATOM    125  C   GLY A  22       3.348  -0.527   1.411  0.00  0.00    +0.000 C 
ATOM    126  O   GLY A  22       2.547  -0.273   2.307  0.00  0.00    +0.000 OA
ATOM    127  N   TRP A  23       3.413   0.168   0.296  0.00  0.00    +0.000 N 
ATOM    128  CA  TRP A  23       2.541   1.309   0.056  0.00  0.00    +0.000 C 
ATOM    129  C   TRP A  23       1.792   1.127  -1.250  0.00  0.00    +0.000 C 
ATOM    130  O   TRP A  23       2.296   0.516  -2.185  0.00  0.00    +0.000 OA
ATOM    131  CB  TRP A  23       3.335   2.611   0.001  0.00  0.00    +0.000 C 
ATOM    132  CG  TRP A  23       4.285   2.812   1.143  0.00  0.00    +0.000 C 
ATOM    133  CD1 TRP A  23       5.641   2.827   1.064  0.00  0.00    +0.000 C 
ATOM    134  CD2 TRP A  23       3.963   3.028   2.521  0.00  0.00    +0.000 C 
ATOM    135  NE1 TRP A  23       6.176   3.030   2.304  0.00  0.00    +0.000 NA
ATOM    136  CE2 TRP A  23       5.172   3.159   3.225  0.00  0.00    +0.000 C 
ATOM    137  CE3 TRP A  23       2.759   3.115   3.232  0.00  0.00    +0.000 C 
ATOM    138  CZ2 TRP A  23       5.218   3.380   4.598  0.00  0.00    +0.000 C 
ATOM    139  CZ3 TRP A  23       2.810   3.338   4.592  0.00  0.00    +0.000 C 
ATOM    140  CH2 TRP A  23       4.024   3.464   5.273  0.00  0.00    +0.000 C 
ATOM    141  N   GLY A  24       0.602   1.694  -1.309  0.00  0.00    +0.000 N 
ATOM    142  CA  GLY A  24      -0.202   1.647  -2.511  0.00  0.00    +0.000 C 
ATOM    143  C   GLY A  24       0.340   2.645  -3.507  0.00  0.00    +0.000 C 
ATOM    144  O   GLY A  24       0.222   3.844  -3.307  0.00  0.00    +0.000 OA
ATOM    145  N   ASP A  25       0.948   2.147  -4.554  0.00  0.00    +0.000 N 
ATOM    146  CA  ASP A  25       1.559   2.977  -5.580  0.00  0.00    +0.000 C 
ATOM    147  C   ASP A  25       0.769   2.864  -6.875  0.00  0.00    +0.000 C 
ATOM    148  O   ASP A  25       0.807   3.788  -7.700  0.00  0.00    +0.000 OA
ATOM    149  CB  ASP A  25       3.018   2.532  -5.757  0.00  0.00    +0.000 C 
ATOM    150  CG  ASP A  25       3.849   3.440  -6.647  0.00  0.00    +0.000 C 
ATOM    151  OD1 ASP A  25       4.796   2.933  -7.264  0.00  0.00    +0.000 OA
ATOM    152  OD2 ASP A  25       3.576   4.655  -6.696  0.00  0.00    +0.000 OA
ATOM    153  H   PHE A   1     -12.073   2.728  -2.496  0.00  0.00    +0.000 HD
ATOM    154  H   PHE A   1     -11.906   2.990  -0.859  0.00  0.00    +0.000 HD
ATOM    155  H   GLY A   2      -8.571   4.811  -3.374  0.00  0.00    +0.000 HD
ATOM    156  H   ARG A   3      -5.614   3.575  -6.131  0.00  0.00    +0.000 HD
ATOM    157  H   ARG A   3       0.097  -0.287 -10.065  0.00  0.00    +0.000 HD
ATOM    158  H   ARG A   3      -0.276   0.990  -8.998  0.00  0.00    +0.000 HD
ATOM    159  H   ARG A   3      -1.354  -2.024 -10.333  0.00  0.00    +0.000 HD
ATOM    160  H   ARG A   3      -2.821  -2.055  -9.464  0.00  0.00    +0.000 HD
ATOM    161  H   ARG A   3      -1.991  -2.252 -10.433  0.00  0.00    +0.000 HD
ATOM    162  H   GLY A   4      -2.519   3.213  -2.731  0.00  0.00    +0.000 HD
ATOM    163  H   LYS A   5      -1.580   6.170   0.220  0.00  0.00    +0.000 HD
ATOM    164  H   LYS A   5       3.081   9.953   2.928  0.00  0.00    +0.000 HD
ATOM    165  H   LYS A   5       4.430   9.809   1.962  0.00  0.00    +0.000 HD
ATOM    166  H   LYS A   5       4.168   8.720   3.195  0.00  0.00    +0.000 HD
ATOM    167  H   GLY A   6       0.436   2.546   2.233  0.00  0.00    +0.000 HD
ATOM    168  H   GLY A   7      -0.870  -0.714   4.120  0.00  0.00    +0.000 HD
ATOM    169  H   GLY A   8      -1.017  -3.544   0.506  0.00  0.00    +0.000 HD
ATOM    170  H   ASP A   9       2.097  -9.096   0.295  0.00  0.00    +0.000 HD
ATOM    171  H   GLY A  10       4.114  -5.043   0.040  0.00  0.00    +0.000 HD
ATOM    172  H   GLU A  11       8.354  -5.123   1.147  0.00  0.00    +0.000 HD
ATOM    173  H   GLU A  11       9.412  -7.498   5.936  0.00  0.00    +0.000 HD
ATOM    174  H   GLY A  12       8.694  -2.790   0.740  0.00  0.00    +0.000 HD
ATOM    175  H   ILE A  13       8.713   1.161  -0.661  0.00  0.00    +0.000 HD
ATOM    176  H   GLY A  14       5.391  -0.380  -3.315  0.00  0.00    +0.000 HD
ATOM    177  H   GLY A  15       4.361  -2.210  -3.519  0.00  0.00    +0.000 HD
ATOM    178  H   GLY A  16       2.425  -5.532  -2.239  0.00  0.00    +0.000 HD
ATOM    179  H   GLY A  18      -2.106  -6.506   1.131  0.00  0.00    +0.000 HD
ATOM    180  H   GLY A  19      -0.060  -9.816   3.252  0.00  0.00    +0.000 HD
ATOM    181  H   SER A  20       4.340  -8.570   3.275  0.00  0.00    +0.000 HD
ATOM    182  H   SER A  20       5.403  -9.233   6.348  0.00  0.00    +0.000 HD
ATOM    183  H   GLY A  21       2.979  -5.320   5.727  0.00  0.00    +0.000 HD
ATOM    184  H   GLY A  22       4.788  -1.650   3.616  0.00  0.00    +0.000 HD
ATOM    185  H   TRP A  23       4.067  -0.090  -0.393  0.00  0.00    +0.000 HD
ATOM    186  H   GLY A  24       0.253   2.161  -0.516  0.00  0.00    +0.000 HD
ATOM    187  H   ASP A  25       0.994   1.168  -4.651  0.00  0.00    +0.000 HD
ATOM    188  H   ASP A  25       2.849   4.992  -6.211  0.00  0.00    +0.000 HD
TER 
