MODEL 1
REMARK VINA RESULT:      -5.7      0.000      0.000
REMARK  Name = ox1_orig_f12_ligand
REMARK  5 active torsions:
REMARK  status: ('A' for Active; 'I' for Inactive)
REMARK    1  A    between atoms: C_1  and  O_2
REMARK    2  A    between atoms: O_2  and  C_3
REMARK    3  A    between atoms: C_6  and  C_7
REMARK    4  A    between atoms: C_7  and  C_9
REMARK    5  A    between atoms: C_15  and  O_16
REMARK                            x       y       z     vdW  Elec       q    Type
REMARK                         _______ _______ _______ _____ _____    ______ ____
ROOT
ATOM      1  C   UNL     1      -2.593  -2.690  -4.151  0.00  0.00    +0.000 A 
ATOM      2  C   UNL     1      -3.795  -2.039  -4.415  0.00  0.00    +0.000 A 
ATOM      3  C   UNL     1      -4.266  -1.073  -3.537  0.00  0.00    +0.000 A 
ATOM      4  C   UNL     1      -3.551  -0.753  -2.385  0.00  0.00    +0.000 A 
ATOM      5  C   UNL     1      -2.348  -1.401  -2.131  0.00  0.00    +0.000 A 
ATOM      6  C   UNL     1      -1.877  -2.359  -3.015  0.00  0.00    +0.000 A 
ENDROOT
BRANCH   1   8
ATOM      7  C   UNL     1      -1.164  -3.321  -5.978  0.00  0.00    +0.000 C 
ATOM      8  O   UNL     1      -2.167  -3.639  -5.042  0.00  0.00    +0.000 OA
ENDBRANCH   1   8
BRANCH   4   9
ATOM      9  C   UNL     1      -4.040   0.293  -1.421  0.00  0.00    +0.000 C 
ATOM     10  O   UNL     1      -3.542   1.399  -1.480  0.00  0.00    +0.000 OA
BRANCH   9  11
ATOM     11  C   UNL     1      -5.121   0.049  -0.438  0.00  0.00    +0.000 A 
ATOM     12  C   UNL     1      -6.360   0.669  -0.547  0.00  0.00    +0.000 A 
ATOM     13  C   UNL     1      -7.348   0.432   0.382  0.00  0.00    +0.000 A 
ATOM     14  C   UNL     1      -7.115  -0.433   1.439  0.00  0.00    +0.000 A 
ATOM     15  C   UNL     1      -5.889  -1.074   1.553  0.00  0.00    +0.000 A 
ATOM     16  C   UNL     1      -4.891  -0.856   0.607  0.00  0.00    +0.000 A 
ENDBRANCH   9  11
ENDBRANCH   4   9
BRANCH   5  17
ATOM     17  O   UNL     1      -1.649  -1.077  -1.015  0.00  0.00    +0.000 OA
ATOM     18  H   UNL     1      -1.090  -1.759  -0.564  0.00  0.00    +0.000 HD
ENDBRANCH   5  17
TORSDOF 4
ENDMDL
MODEL 2
REMARK VINA RESULT:      -5.4      2.237      3.765
REMARK  Name = ox1_orig_f12_ligand
REMARK  5 active torsions:
REMARK  status: ('A' for Active; 'I' for Inactive)
REMARK    1  A    between atoms: C_1  and  O_2
REMARK    2  A    between atoms: O_2  and  C_3
REMARK    3  A    between atoms: C_6  and  C_7
REMARK    4  A    between atoms: C_7  and  C_9
REMARK    5  A    between atoms: C_15  and  O_16
REMARK                            x       y       z     vdW  Elec       q    Type
REMARK                         _______ _______ _______ _____ _____    ______ ____
ROOT
ATOM      1  C   UNL     1      -0.521  -3.298  -6.979  0.00  0.00    +0.000 A 
ATOM      2  C   UNL     1      -1.598  -3.845  -6.290  0.00  0.00    +0.000 A 
ATOM      3  C   UNL     1      -1.924  -3.373  -5.026  0.00  0.00    +0.000 A 
ATOM      4  C   UNL     1      -1.174  -2.359  -4.434  0.00  0.00    +0.000 A 
ATOM      5  C   UNL     1      -0.104  -1.812  -5.131  0.00  0.00    +0.000 A 
ATOM      6  C   UNL     1       0.213  -2.281  -6.396  0.00  0.00    +0.000 A 
ENDROOT
BRANCH   1   8
ATOM      7  C   UNL     1       1.012  -3.514  -8.818  0.00  0.00    +0.000 C 
ATOM      8  O   UNL     1      -0.233  -3.796  -8.222  0.00  0.00    +0.000 OA
ENDBRANCH   1   8
BRANCH   4   9
ATOM      9  C   UNL     1      -1.511  -1.829  -3.066  0.00  0.00    +0.000 C 
ATOM     10  O   UNL     1      -0.646  -1.863  -2.215  0.00  0.00    +0.000 OA
BRANCH   9  11
ATOM     11  C   UNL     1      -2.824  -1.235  -2.727  0.00  0.00    +0.000 A 
ATOM     12  C   UNL     1      -3.724  -0.844  -3.710  0.00  0.00    +0.000 A 
ATOM     13  C   UNL     1      -4.937  -0.288  -3.371  0.00  0.00    +0.000 A 
ATOM     14  C   UNL     1      -5.273  -0.113  -2.038  0.00  0.00    +0.000 A 
ATOM     15  C   UNL     1      -4.393  -0.515  -1.043  0.00  0.00    +0.000 A 
ATOM     16  C   UNL     1      -3.173  -1.097  -1.376  0.00  0.00    +0.000 A 
ENDBRANCH   9  11
ENDBRANCH   4   9
BRANCH   5  17
ATOM     17  O   UNL     1       0.615  -0.816  -4.554  0.00  0.00    +0.000 OA
ATOM     18  H   UNL     1       0.613  -0.710  -3.569  0.00  0.00    +0.000 HD
ENDBRANCH   5  17
TORSDOF 4
ENDMDL
MODEL 3
REMARK VINA RESULT:      -5.3      1.045      2.065
REMARK  Name = ox1_orig_f12_ligand
REMARK  5 active torsions:
REMARK  status: ('A' for Active; 'I' for Inactive)
REMARK    1  A    between atoms: C_1  and  O_2
REMARK    2  A    between atoms: O_2  and  C_3
REMARK    3  A    between atoms: C_6  and  C_7
REMARK    4  A    between atoms: C_7  and  C_9
REMARK    5  A    between atoms: C_15  and  O_16
REMARK                            x       y       z     vdW  Elec       q    Type
REMARK                         _______ _______ _______ _____ _____    ______ ____
ROOT
ATOM      1  C   UNL     1      -2.433  -2.337  -3.856  0.00  0.00    +0.000 A 
ATOM      2  C   UNL     1      -1.939  -2.206  -2.562  0.00  0.00    +0.000 A 
ATOM      3  C   UNL     1      -2.495  -1.271  -1.700  0.00  0.00    +0.000 A 
ATOM      4  C   UNL     1      -3.539  -0.452  -2.122  0.00  0.00    +0.000 A 
ATOM      5  C   UNL     1      -4.033  -0.593  -3.413  0.00  0.00    +0.000 A 
ATOM      6  C   UNL     1      -3.481  -1.534  -4.268  0.00  0.00    +0.000 A 
ENDROOT
BRANCH   1   8
ATOM      7  C   UNL     1      -2.662  -4.180  -5.383  0.00  0.00    +0.000 C 
ATOM      8  O   UNL     1      -1.853  -3.270  -4.674  0.00  0.00    +0.000 OA
ENDBRANCH   1   8
BRANCH   4   9
ATOM      9  C   UNL     1      -4.160   0.566  -1.204  0.00  0.00    +0.000 C 
ATOM     10  O   UNL     1      -3.796   1.720  -1.306  0.00  0.00    +0.000 OA
BRANCH   9  11
ATOM     11  C   UNL     1      -5.214   0.235  -0.218  0.00  0.00    +0.000 A 
ATOM     12  C   UNL     1      -4.962  -0.591   0.870  0.00  0.00    +0.000 A 
ATOM     13  C   UNL     1      -5.960  -0.891   1.770  0.00  0.00    +0.000 A 
ATOM     14  C   UNL     1      -7.231  -0.368   1.598  0.00  0.00    +0.000 A 
ATOM     15  C   UNL     1      -7.496   0.473   0.525  0.00  0.00    +0.000 A 
ATOM     16  C   UNL     1      -6.488   0.798  -0.378  0.00  0.00    +0.000 A 
ENDBRANCH   9  11
ENDBRANCH   4   9
BRANCH   5  17
ATOM     17  O   UNL     1      -5.059   0.199  -3.814  0.00  0.00    +0.000 OA
ATOM     18  H   UNL     1      -5.014   0.664  -4.688  0.00  0.00    +0.000 HD
ENDBRANCH   5  17
TORSDOF 4
ENDMDL
MODEL 4
REMARK VINA RESULT:      -5.3      2.039      5.924
REMARK  Name = ox1_orig_f12_ligand
REMARK  5 active torsions:
REMARK  status: ('A' for Active; 'I' for Inactive)
REMARK    1  A    between atoms: C_1  and  O_2
REMARK    2  A    between atoms: O_2  and  C_3
REMARK    3  A    between atoms: C_6  and  C_7
REMARK    4  A    between atoms: C_7  and  C_9
REMARK    5  A    between atoms: C_15  and  O_16
REMARK                            x       y       z     vdW  Elec       q    Type
REMARK                         _______ _______ _______ _____ _____    ______ ____
ROOT
ATOM      1  C   UNL     1      -7.253  -0.234   1.277  0.00  0.00    +0.000 A 
ATOM      2  C   UNL     1      -7.276  -0.847   0.030  0.00  0.00    +0.000 A 
ATOM      3  C   UNL     1      -6.252  -0.613  -0.877  0.00  0.00    +0.000 A 
ATOM      4  C   UNL     1      -5.201   0.242  -0.553  0.00  0.00    +0.000 A 
ATOM      5  C   UNL     1      -5.180   0.847   0.698  0.00  0.00    +0.000 A 
ATOM      6  C   UNL     1      -6.200   0.603   1.603  0.00  0.00    +0.000 A 
ENDROOT
BRANCH   1   8
ATOM      7  C   UNL     1      -9.118  -1.604   1.924  0.00  0.00    +0.000 C 
ATOM      8  O   UNL     1      -8.285  -0.490   2.140  0.00  0.00    +0.000 OA
ENDBRANCH   1   8
BRANCH   4   9
ATOM      9  C   UNL     1      -4.078   0.509  -1.519  0.00  0.00    +0.000 C 
ATOM     10  O   UNL     1      -3.683   1.652  -1.629  0.00  0.00    +0.000 OA
BRANCH   9  11
ATOM     11  C   UNL     1      -3.413  -0.556  -2.304  0.00  0.00    +0.000 A 
ATOM     12  C   UNL     1      -3.759  -0.813  -3.625  0.00  0.00    +0.000 A 
ATOM     13  C   UNL     1      -3.131  -1.813  -4.332  0.00  0.00    +0.000 A 
ATOM     14  C   UNL     1      -2.142  -2.575  -3.731  0.00  0.00    +0.000 A 
ATOM     15  C   UNL     1      -1.771  -2.319  -2.418  0.00  0.00    +0.000 A 
ATOM     16  C   UNL     1      -2.386  -1.297  -1.701  0.00  0.00    +0.000 A 
ENDBRANCH   9  11
ENDBRANCH   4   9
BRANCH   5  17
ATOM     17  O   UNL     1      -4.148   1.669   1.013  0.00  0.00    +0.000 OA
ATOM     18  H   UNL     1      -4.307   2.477   1.564  0.00  0.00    +0.000 HD
ENDBRANCH   5  17
TORSDOF 4
ENDMDL
MODEL 5
REMARK VINA RESULT:      -5.3      2.063      6.244
REMARK  Name = ox1_orig_f12_ligand
REMARK  5 active torsions:
REMARK  status: ('A' for Active; 'I' for Inactive)
REMARK    1  A    between atoms: C_1  and  O_2
REMARK    2  A    between atoms: O_2  and  C_3
REMARK    3  A    between atoms: C_6  and  C_7
REMARK    4  A    between atoms: C_7  and  C_9
REMARK    5  A    between atoms: C_15  and  O_16
REMARK                            x       y       z     vdW  Elec       q    Type
REMARK                         _______ _______ _______ _____ _____    ______ ____
ROOT
ATOM      1  C   UNL     1      -5.012   0.726   2.059  0.00  0.00    +0.000 A 
ATOM      2  C   UNL     1      -5.276  -0.597   1.719  0.00  0.00    +0.000 A 
ATOM      3  C   UNL     1      -5.238  -0.991   0.388  0.00  0.00    +0.000 A 
ATOM      4  C   UNL     1      -4.946  -0.070  -0.615  0.00  0.00    +0.000 A 
ATOM      5  C   UNL     1      -4.676   1.248  -0.268  0.00  0.00    +0.000 A 
ATOM      6  C   UNL     1      -4.707   1.636   1.062  0.00  0.00    +0.000 A 
ENDROOT
BRANCH   1   8
ATOM      7  C   UNL     1      -5.435   2.380   3.750  0.00  0.00    +0.000 C 
ATOM      8  O   UNL     1      -5.064   1.072   3.383  0.00  0.00    +0.000 OA
ENDBRANCH   1   8
BRANCH   4   9
ATOM      9  C   UNL     1      -4.895  -0.475  -2.064  0.00  0.00    +0.000 C 
ATOM     10  O   UNL     1      -5.820  -0.147  -2.778  0.00  0.00    +0.000 OA
BRANCH   9  11
ATOM     11  C   UNL     1      -3.759  -1.214  -2.660  0.00  0.00    +0.000 A 
ATOM     12  C   UNL     1      -2.560  -1.382  -1.979  0.00  0.00    +0.000 A 
ATOM     13  C   UNL     1      -1.515  -2.067  -2.557  0.00  0.00    +0.000 A 
ATOM     14  C   UNL     1      -1.651  -2.600  -3.829  0.00  0.00    +0.000 A 
ATOM     15  C   UNL     1      -2.849  -2.457  -4.516  0.00  0.00    +0.000 A 
ATOM     16  C   UNL     1      -3.917  -1.783  -3.932  0.00  0.00    +0.000 A 
ENDBRANCH   9  11
ENDBRANCH   4   9
BRANCH   5  17
ATOM     17  O   UNL     1      -4.380   2.138  -1.248  0.00  0.00    +0.000 OA
ATOM     18  H   UNL     1      -3.591   1.991  -1.829  0.00  0.00    +0.000 HD
ENDBRANCH   5  17
TORSDOF 4
ENDMDL
MODEL 6
REMARK VINA RESULT:      -5.2      2.232      7.424
REMARK  Name = ox1_orig_f12_ligand
REMARK  5 active torsions:
REMARK  status: ('A' for Active; 'I' for Inactive)
REMARK    1  A    between atoms: C_1  and  O_2
REMARK    2  A    between atoms: O_2  and  C_3
REMARK    3  A    between atoms: C_6  and  C_7
REMARK    4  A    between atoms: C_7  and  C_9
REMARK    5  A    between atoms: C_15  and  O_16
REMARK                            x       y       z     vdW  Elec       q    Type
REMARK                         _______ _______ _______ _____ _____    ______ ____
ROOT
ATOM      1  C   UNL     1      -3.406  -1.040  -2.521  0.00  0.00    +0.000 A 
ATOM      2  C   UNL     1      -2.234  -1.732  -2.234  0.00  0.00    +0.000 A 
ATOM      3  C   UNL     1      -1.566  -2.411  -3.244  0.00  0.00    +0.000 A 
ATOM      4  C   UNL     1      -2.063  -2.414  -4.545  0.00  0.00    +0.000 A 
ATOM      5  C   UNL     1      -3.231  -1.714  -4.826  0.00  0.00    +0.000 A 
ATOM      6  C   UNL     1      -3.890  -1.031  -3.816  0.00  0.00    +0.000 A 
ENDROOT
BRANCH   1   8
ATOM      7  C   UNL     1      -3.867   1.002  -1.340  0.00  0.00    +0.000 C 
ATOM      8  O   UNL     1      -4.035  -0.388  -1.494  0.00  0.00    +0.000 OA
ENDBRANCH   1   8
BRANCH   4   9
ATOM      9  C   UNL     1      -1.354  -3.139  -5.657  0.00  0.00    +0.000 C 
ATOM     10  O   UNL     1      -1.805  -4.207  -6.017  0.00  0.00    +0.000 OA
BRANCH   9  11
ATOM     11  C   UNL     1      -0.165  -2.594  -6.352  0.00  0.00    +0.000 A 
ATOM     12  C   UNL     1       0.420  -3.257  -7.424  0.00  0.00    +0.000 A 
ATOM     13  C   UNL     1       1.529  -2.734  -8.051  0.00  0.00    +0.000 A 
ATOM     14  C   UNL     1       2.073  -1.536  -7.617  0.00  0.00    +0.000 A 
ATOM     15  C   UNL     1       1.489  -0.853  -6.559  0.00  0.00    +0.000 A 
ATOM     16  C   UNL     1       0.357  -1.363  -5.933  0.00  0.00    +0.000 A 
ENDBRANCH   9  11
ENDBRANCH   4   9
BRANCH   5  17
ATOM     17  O   UNL     1      -3.704  -1.710  -6.097  0.00  0.00    +0.000 OA
ATOM     18  H   UNL     1      -4.178  -0.913  -6.447  0.00  0.00    +0.000 HD
ENDBRANCH   5  17
TORSDOF 4
ENDMDL
MODEL 7
REMARK VINA RESULT:      -5.1      1.881      6.178
REMARK  Name = ox1_orig_f12_ligand
REMARK  5 active torsions:
REMARK  status: ('A' for Active; 'I' for Inactive)
REMARK    1  A    between atoms: C_1  and  O_2
REMARK    2  A    between atoms: O_2  and  C_3
REMARK    3  A    between atoms: C_6  and  C_7
REMARK    4  A    between atoms: C_7  and  C_9
REMARK    5  A    between atoms: C_15  and  O_16
REMARK                            x       y       z     vdW  Elec       q    Type
REMARK                         _______ _______ _______ _____ _____    ______ ____
ROOT
ATOM      1  C   UNL     1      -6.925  -0.818   1.659  0.00  0.00    +0.000 A 
ATOM      2  C   UNL     1      -5.587  -1.163   1.819  0.00  0.00    +0.000 A 
ATOM      3  C   UNL     1      -4.665  -0.834   0.834  0.00  0.00    +0.000 A 
ATOM      4  C   UNL     1      -5.068  -0.170  -0.321  0.00  0.00    +0.000 A 
ATOM      5  C   UNL     1      -6.406   0.178  -0.472  0.00  0.00    +0.000 A 
ATOM      6  C   UNL     1      -7.321  -0.144   0.518  0.00  0.00    +0.000 A 
ENDROOT
BRANCH   1   8
ATOM      7  C   UNL     1      -8.729  -0.218   3.129  0.00  0.00    +0.000 C 
ATOM      8  O   UNL     1      -7.801  -1.164   2.653  0.00  0.00    +0.000 OA
ENDBRANCH   1   8
BRANCH   4   9
ATOM      9  C   UNL     1      -4.086   0.199  -1.400  0.00  0.00    +0.000 C 
ATOM     10  O   UNL     1      -3.783   1.369  -1.517  0.00  0.00    +0.000 OA
BRANCH   9  11
ATOM     11  C   UNL     1      -3.449  -0.796  -2.292  0.00  0.00    +0.000 A 
ATOM     12  C   UNL     1      -3.985  -1.113  -3.534  0.00  0.00    +0.000 A 
ATOM     13  C   UNL     1      -3.378  -2.046  -4.344  0.00  0.00    +0.000 A 
ATOM     14  C   UNL     1      -2.220  -2.682  -3.925  0.00  0.00    +0.000 A 
ATOM     15  C   UNL     1      -1.661  -2.364  -2.695  0.00  0.00    +0.000 A 
ATOM     16  C   UNL     1      -2.257  -1.407  -1.879  0.00  0.00    +0.000 A 
ENDBRANCH   9  11
ENDBRANCH   4   9
BRANCH   5  17
ATOM     17  O   UNL     1      -6.791   0.836  -1.593  0.00  0.00    +0.000 OA
ATOM     18  H   UNL     1      -7.231   1.722  -1.522  0.00  0.00    +0.000 HD
ENDBRANCH   5  17
TORSDOF 4
ENDMDL
MODEL 8
REMARK VINA RESULT:      -5.1      1.787      6.276
REMARK  Name = ox1_orig_f12_ligand
REMARK  5 active torsions:
REMARK  status: ('A' for Active; 'I' for Inactive)
REMARK    1  A    between atoms: C_1  and  O_2
REMARK    2  A    between atoms: O_2  and  C_3
REMARK    3  A    between atoms: C_6  and  C_7
REMARK    4  A    between atoms: C_7  and  C_9
REMARK    5  A    between atoms: C_15  and  O_16
REMARK                            x       y       z     vdW  Elec       q    Type
REMARK                         _______ _______ _______ _____ _____    ______ ____
ROOT
ATOM      1  C   UNL     1      -4.744  -0.663  -1.487  0.00  0.00    +0.000 A 
ATOM      2  C   UNL     1      -5.111  -0.528  -2.822  0.00  0.00    +0.000 A 
ATOM      3  C   UNL     1      -4.175  -0.748  -3.823  0.00  0.00    +0.000 A 
ATOM      4  C   UNL     1      -2.865  -1.095  -3.505  0.00  0.00    +0.000 A 
ATOM      5  C   UNL     1      -2.506  -1.235  -2.169  0.00  0.00    +0.000 A 
ATOM      6  C   UNL     1      -3.445  -1.023  -1.173  0.00  0.00    +0.000 A 
ENDROOT
BRANCH   1   8
ATOM      7  C   UNL     1      -6.776   0.427  -0.811  0.00  0.00    +0.000 C 
ATOM      8  O   UNL     1      -5.697  -0.434  -0.531  0.00  0.00    +0.000 OA
ENDBRANCH   1   8
BRANCH   4   9
ATOM      9  C   UNL     1      -1.834  -1.342  -4.573  0.00  0.00    +0.000 C 
ATOM     10  O   UNL     1      -1.050  -0.449  -4.824  0.00  0.00    +0.000 OA
BRANCH   9  11
ATOM     11  C   UNL     1      -1.709  -2.627  -5.298  0.00  0.00    +0.000 A 
ATOM     12  C   UNL     1      -2.565  -3.692  -5.048  0.00  0.00    +0.000 A 
ATOM     13  C   UNL     1      -2.425  -4.880  -5.730  0.00  0.00    +0.000 A 
ATOM     14  C   UNL     1      -1.425  -5.024  -6.678  0.00  0.00    +0.000 A 
ATOM     15  C   UNL     1      -0.573  -3.964  -6.953  0.00  0.00    +0.000 A 
ATOM     16  C   UNL     1      -0.719  -2.753  -6.283  0.00  0.00    +0.000 A 
ENDBRANCH   9  11
ENDBRANCH   4   9
BRANCH   5  17
ATOM     17  O   UNL     1      -1.231  -1.586  -1.865  0.00  0.00    +0.000 OA
ATOM     18  H   UNL     1      -0.524  -0.893  -1.821  0.00  0.00    +0.000 HD
ENDBRANCH   5  17
TORSDOF 4
ENDMDL
MODEL 9
REMARK VINA RESULT:      -4.7      2.221      6.061
REMARK  Name = ox1_orig_f12_ligand
REMARK  5 active torsions:
REMARK  status: ('A' for Active; 'I' for Inactive)
REMARK    1  A    between atoms: C_1  and  O_2
REMARK    2  A    between atoms: O_2  and  C_3
REMARK    3  A    between atoms: C_6  and  C_7
REMARK    4  A    between atoms: C_7  and  C_9
REMARK    5  A    between atoms: C_15  and  O_16
REMARK                            x       y       z     vdW  Elec       q    Type
REMARK                         _______ _______ _______ _____ _____    ______ ____
ROOT
ATOM      1  C   UNL     1      -4.998   0.929   0.389  0.00  0.00    +0.000 A 
ATOM      2  C   UNL     1      -4.075   1.456  -0.507  0.00  0.00    +0.000 A 
ATOM      3  C   UNL     1      -4.024   0.979  -1.810  0.00  0.00    +0.000 A 
ATOM      4  C   UNL     1      -4.884  -0.033  -2.228  0.00  0.00    +0.000 A 
ATOM      5  C   UNL     1      -5.810  -0.551  -1.329  0.00  0.00    +0.000 A 
ATOM      6  C   UNL     1      -5.863  -0.066  -0.032  0.00  0.00    +0.000 A 
ENDROOT
BRANCH   1   8
ATOM      7  C   UNL     1      -4.977   0.541   2.762  0.00  0.00    +0.000 C 
ATOM      8  O   UNL     1      -5.012   1.425   1.666  0.00  0.00    +0.000 OA
ENDBRANCH   1   8
BRANCH   4   9
ATOM      9  C   UNL     1      -4.850  -0.563  -3.636  0.00  0.00    +0.000 C 
ATOM     10  O   UNL     1      -5.726  -0.210  -4.398  0.00  0.00    +0.000 OA
BRANCH   9  11
ATOM     11  C   UNL     1      -3.782  -1.457  -4.140  0.00  0.00    +0.000 A 
ATOM     12  C   UNL     1      -3.778  -1.923  -5.449  0.00  0.00    +0.000 A 
ATOM     13  C   UNL     1      -2.779  -2.758  -5.894  0.00  0.00    +0.000 A 
ATOM     14  C   UNL     1      -1.760  -3.142  -5.036  0.00  0.00    +0.000 A 
ATOM     15  C   UNL     1      -1.739  -2.671  -3.730  0.00  0.00    +0.000 A 
ATOM     16  C   UNL     1      -2.734  -1.810  -3.278  0.00  0.00    +0.000 A 
ENDBRANCH   9  11
ENDBRANCH   4   9
BRANCH   5  17
ATOM     17  O   UNL     1      -6.654  -1.527  -1.745  0.00  0.00    +0.000 OA
ATOM     18  H   UNL     1      -6.424  -2.078  -2.536  0.00  0.00    +0.000 HD
ENDBRANCH   5  17
TORSDOF 4
ENDMDL
