REMARK  Name = ox2_esm1_f8_ligand
REMARK  5 active torsions:
REMARK  status: ('A' for Active; 'I' for Inactive)
REMARK    1  A    between atoms: C_1  and  O_2
REMARK    2  A    between atoms: O_2  and  C_3
REMARK    3  A    between atoms: C_6  and  C_7
REMARK    4  A    between atoms: C_7  and  C_9
REMARK    5  A    between atoms: C_15  and  O_16
REMARK                            x       y       z     vdW  Elec       q    Type
REMARK                         _______ _______ _______ _____ _____    ______ ____
ROOT
ATOM      1  C   UNL     1       0.459   3.747   5.216  0.00  0.00    +0.000 A 
ATOM      2  C   UNL     1       0.046   3.046   4.085  0.00  0.00    +0.000 A 
ATOM      3  C   UNL     1      -0.406   1.743   4.200  0.00  0.00    +0.000 A 
ATOM      4  C   UNL     1      -0.436   1.121   5.435  0.00  0.00    +0.000 A 
ATOM      5  C   UNL     1      -0.024   1.821   6.578  0.00  0.00    +0.000 A 
ATOM      6  C   UNL     1       0.418   3.137   6.451  0.00  0.00    +0.000 A 
ENDROOT
BRANCH   1   8
ATOM      7  C   UNL     1       0.964   5.707   3.879  0.00  0.00    +0.000 C 
ATOM      8  O   UNL     1       0.904   5.035   5.157  0.00  0.00    +0.000 OA
ENDBRANCH   1   8
BRANCH   4   9
ATOM      9  C   UNL     1      -0.911  -0.290   5.574  0.00  0.00    +0.000 C 
ATOM     10  O   UNL     1      -1.179  -0.728   6.672  0.00  0.00    +0.000 OA
BRANCH   9  11
ATOM     11  C   UNL     1      -1.073  -1.164   4.393  0.00  0.00    +0.000 A 
ATOM     12  C   UNL     1      -2.273  -1.842   4.195  0.00  0.00    +0.000 A 
ATOM     13  C   UNL     1      -2.427  -2.657   3.077  0.00  0.00    +0.000 A 
ATOM     14  C   UNL     1      -1.389  -2.833   2.173  0.00  0.00    +0.000 A 
ATOM     15  C   UNL     1      -0.183  -2.187   2.400  0.00  0.00    +0.000 A 
ATOM     16  C   UNL     1      -0.025  -1.351   3.505  0.00  0.00    +0.000 A 
ENDBRANCH   9  11
ENDBRANCH   4   9
BRANCH   5  17
ATOM     17  O   UNL     1      -0.067   1.199   7.796  0.00  0.00    +0.000 OA
ATOM     18  H   UNL     1       0.222   1.684   8.610  0.00  0.00    +0.000 HD
ENDBRANCH   5  17
TORSDOF 4
