MODEL 1
REMARK VINA RESULT:      -4.5      0.000      0.000
REMARK  Name = ox2_esm1_f8_ligand
REMARK  5 active torsions:
REMARK  status: ('A' for Active; 'I' for Inactive)
REMARK    1  A    between atoms: C_1  and  O_2
REMARK    2  A    between atoms: O_2  and  C_3
REMARK    3  A    between atoms: C_6  and  C_7
REMARK    4  A    between atoms: C_7  and  C_9
REMARK    5  A    between atoms: C_15  and  O_16
REMARK                            x       y       z     vdW  Elec       q    Type
REMARK                         _______ _______ _______ _____ _____    ______ ____
ROOT
ATOM      1  C   UNL     1       4.581  -0.414  -3.845  0.00  0.00    +0.000 A 
ATOM      2  C   UNL     1       4.590   0.822  -4.487  0.00  0.00    +0.000 A 
ATOM      3  C   UNL     1       4.299   1.976  -3.781  0.00  0.00    +0.000 A 
ATOM      4  C   UNL     1       3.981   1.910  -2.437  0.00  0.00    +0.000 A 
ATOM      5  C   UNL     1       3.972   0.670  -1.783  0.00  0.00    +0.000 A 
ATOM      6  C   UNL     1       4.279  -0.484  -2.502  0.00  0.00    +0.000 A 
ENDROOT
BRANCH   1   8
ATOM      7  C   UNL     1       4.883  -2.819  -3.752  0.00  0.00    +0.000 C 
ATOM      8  O   UNL     1       4.869  -1.579  -4.494  0.00  0.00    +0.000 OA
ENDBRANCH   1   8
BRANCH   4   9
ATOM      9  C   UNL     1       3.653   3.147  -1.663  0.00  0.00    +0.000 C 
ATOM     10  O   UNL     1       2.496   3.415  -1.421  0.00  0.00    +0.000 OA
BRANCH   9  11
ATOM     11  C   UNL     1       4.717   4.048  -1.172  0.00  0.00    +0.000 A 
ATOM     12  C   UNL     1       4.991   5.230  -1.856  0.00  0.00    +0.000 A 
ATOM     13  C   UNL     1       5.987   6.082  -1.387  0.00  0.00    +0.000 A 
ATOM     14  C   UNL     1       6.736   5.756  -0.266  0.00  0.00    +0.000 A 
ATOM     15  C   UNL     1       6.485   4.557   0.386  0.00  0.00    +0.000 A 
ATOM     16  C   UNL     1       5.476   3.706  -0.063  0.00  0.00    +0.000 A 
ENDBRANCH   9  11
ENDBRANCH   4   9
BRANCH   5  17
ATOM     17  O   UNL     1       3.665   0.618  -0.450  0.00  0.00    +0.000 OA
ATOM     18  H   UNL     1       4.004  -0.129   0.107  0.00  0.00    +0.000 HD
ENDBRANCH   5  17
TORSDOF 4
ENDMDL
MODEL 2
REMARK VINA RESULT:      -4.4      2.791      4.898
REMARK  Name = ox2_esm1_f8_ligand
REMARK  5 active torsions:
REMARK  status: ('A' for Active; 'I' for Inactive)
REMARK    1  A    between atoms: C_1  and  O_2
REMARK    2  A    between atoms: O_2  and  C_3
REMARK    3  A    between atoms: C_6  and  C_7
REMARK    4  A    between atoms: C_7  and  C_9
REMARK    5  A    between atoms: C_15  and  O_16
REMARK                            x       y       z     vdW  Elec       q    Type
REMARK                         _______ _______ _______ _____ _____    ______ ____
ROOT
ATOM      1  C   UNL     1       5.737   1.223   0.981  0.00  0.00    +0.000 A 
ATOM      2  C   UNL     1       4.794   0.468   0.287  0.00  0.00    +0.000 A 
ATOM      3  C   UNL     1       4.081   1.033  -0.757  0.00  0.00    +0.000 A 
ATOM      4  C   UNL     1       4.288   2.354  -1.108  0.00  0.00    +0.000 A 
ATOM      5  C   UNL     1       5.237   3.120  -0.416  0.00  0.00    +0.000 A 
ATOM      6  C   UNL     1       5.957   2.536   0.626  0.00  0.00    +0.000 A 
ENDROOT
BRANCH   1   8
ATOM      7  C   UNL     1       5.794   0.061   3.109  0.00  0.00    +0.000 C 
ATOM      8  O   UNL     1       6.471   0.711   2.010  0.00  0.00    +0.000 OA
ENDBRANCH   1   8
BRANCH   4   9
ATOM      9  C   UNL     1       3.518   2.982  -2.226  0.00  0.00    +0.000 C 
ATOM     10  O   UNL     1       2.610   3.745  -1.976  0.00  0.00    +0.000 OA
BRANCH   9  11
ATOM     11  C   UNL     1       3.849   2.699  -3.639  0.00  0.00    +0.000 A 
ATOM     12  C   UNL     1       5.181   2.566  -4.022  0.00  0.00    +0.000 A 
ATOM     13  C   UNL     1       5.491   2.290  -5.351  0.00  0.00    +0.000 A 
ATOM     14  C   UNL     1       4.493   2.180  -6.309  0.00  0.00    +0.000 A 
ATOM     15  C   UNL     1       3.171   2.355  -5.926  0.00  0.00    +0.000 A 
ATOM     16  C   UNL     1       2.848   2.610  -4.594  0.00  0.00    +0.000 A 
ENDBRANCH   9  11
ENDBRANCH   4   9
BRANCH   5  17
ATOM     17  O   UNL     1       5.439   4.423  -0.779  0.00  0.00    +0.000 OA
ATOM     18  H   UNL     1       5.857   4.635  -1.652  0.00  0.00    +0.000 HD
ENDBRANCH   5  17
TORSDOF 4
ENDMDL
MODEL 3
REMARK VINA RESULT:      -4.3      2.320      4.723
REMARK  Name = ox2_esm1_f8_ligand
REMARK  5 active torsions:
REMARK  status: ('A' for Active; 'I' for Inactive)
REMARK    1  A    between atoms: C_1  and  O_2
REMARK    2  A    between atoms: O_2  and  C_3
REMARK    3  A    between atoms: C_6  and  C_7
REMARK    4  A    between atoms: C_7  and  C_9
REMARK    5  A    between atoms: C_15  and  O_16
REMARK                            x       y       z     vdW  Elec       q    Type
REMARK                         _______ _______ _______ _____ _____    ______ ____
ROOT
ATOM      1  C   UNL     1       5.820   1.461   1.066  0.00  0.00    +0.000 A 
ATOM      2  C   UNL     1       5.896   2.806   0.708  0.00  0.00    +0.000 A 
ATOM      3  C   UNL     1       5.195   3.275  -0.389  0.00  0.00    +0.000 A 
ATOM      4  C   UNL     1       4.428   2.411  -1.149  0.00  0.00    +0.000 A 
ATOM      5  C   UNL     1       4.345   1.057  -0.794  0.00  0.00    +0.000 A 
ATOM      6  C   UNL     1       5.045   0.599   0.320  0.00  0.00    +0.000 A 
ENDROOT
BRANCH   1   8
ATOM      7  C   UNL     1       5.729   0.382   3.236  0.00  0.00    +0.000 C 
ATOM      8  O   UNL     1       6.483   0.952   2.143  0.00  0.00    +0.000 OA
ENDBRANCH   1   8
BRANCH   4   9
ATOM      9  C   UNL     1       3.674   2.900  -2.344  0.00  0.00    +0.000 C 
ATOM     10  O   UNL     1       2.640   3.514  -2.192  0.00  0.00    +0.000 OA
BRANCH   9  11
ATOM     11  C   UNL     1       4.172   2.661  -3.715  0.00  0.00    +0.000 A 
ATOM     12  C   UNL     1       3.268   2.415  -4.746  0.00  0.00    +0.000 A 
ATOM     13  C   UNL     1       3.738   2.200  -6.038  0.00  0.00    +0.000 A 
ATOM     14  C   UNL     1       5.099   2.190  -6.310  0.00  0.00    +0.000 A 
ATOM     15  C   UNL     1       5.994   2.394  -5.271  0.00  0.00    +0.000 A 
ATOM     16  C   UNL     1       5.533   2.633  -3.976  0.00  0.00    +0.000 A 
ENDBRANCH   9  11
ENDBRANCH   4   9
BRANCH   5  17
ATOM     17  O   UNL     1       3.575   0.213  -1.547  0.00  0.00    +0.000 OA
ATOM     18  H   UNL     1       3.971  -0.258  -2.324  0.00  0.00    +0.000 HD
ENDBRANCH   5  17
TORSDOF 4
ENDMDL
MODEL 4
REMARK VINA RESULT:      -4.2     11.773     13.799
REMARK  Name = ox2_esm1_f8_ligand
REMARK  5 active torsions:
REMARK  status: ('A' for Active; 'I' for Inactive)
REMARK    1  A    between atoms: C_1  and  O_2
REMARK    2  A    between atoms: O_2  and  C_3
REMARK    3  A    between atoms: C_6  and  C_7
REMARK    4  A    between atoms: C_7  and  C_9
REMARK    5  A    between atoms: C_15  and  O_16
REMARK                            x       y       z     vdW  Elec       q    Type
REMARK                         _______ _______ _______ _____ _____    ______ ____
ROOT
ATOM      1  C   UNL     1      -3.976  -2.332   4.550  0.00  0.00    +0.000 A 
ATOM      2  C   UNL     1      -3.098  -3.300   4.066  0.00  0.00    +0.000 A 
ATOM      3  C   UNL     1      -3.586  -4.412   3.403  0.00  0.00    +0.000 A 
ATOM      4  C   UNL     1      -4.948  -4.580   3.228  0.00  0.00    +0.000 A 
ATOM      5  C   UNL     1      -5.837  -3.608   3.710  0.00  0.00    +0.000 A 
ATOM      6  C   UNL     1      -5.333  -2.486   4.366  0.00  0.00    +0.000 A 
ENDROOT
BRANCH   1   8
ATOM      7  C   UNL     1      -3.460  -1.223   6.645  0.00  0.00    +0.000 C 
ATOM      8  O   UNL     1      -3.545  -1.214   5.202  0.00  0.00    +0.000 OA
ENDBRANCH   1   8
BRANCH   4   9
ATOM      9  C   UNL     1      -5.491  -5.781   2.523  0.00  0.00    +0.000 C 
ATOM     10  O   UNL     1      -6.037  -6.656   3.161  0.00  0.00    +0.000 OA
BRANCH   9  11
ATOM     11  C   UNL     1      -5.386  -5.921   1.055  0.00  0.00    +0.000 A 
ATOM     12  C   UNL     1      -5.605  -4.815   0.239  0.00  0.00    +0.000 A 
ATOM     13  C   UNL     1      -5.496  -4.947  -1.143  0.00  0.00    +0.000 A 
ATOM     14  C   UNL     1      -5.207  -6.174  -1.723  0.00  0.00    +0.000 A 
ATOM     15  C   UNL     1      -5.031  -7.279  -0.904  0.00  0.00    +0.000 A 
ATOM     16  C   UNL     1      -5.116  -7.154   0.482  0.00  0.00    +0.000 A 
ENDBRANCH   9  11
ENDBRANCH   4   9
BRANCH   5  17
ATOM     17  O   UNL     1      -7.181  -3.779   3.523  0.00  0.00    +0.000 OA
ATOM     18  H   UNL     1      -7.544  -4.681   3.333  0.00  0.00    +0.000 HD
ENDBRANCH   5  17
TORSDOF 4
ENDMDL
MODEL 5
REMARK VINA RESULT:      -4.2      2.541      4.081
REMARK  Name = ox2_esm1_f8_ligand
REMARK  5 active torsions:
REMARK  status: ('A' for Active; 'I' for Inactive)
REMARK    1  A    between atoms: C_1  and  O_2
REMARK    2  A    between atoms: O_2  and  C_3
REMARK    3  A    between atoms: C_6  and  C_7
REMARK    4  A    between atoms: C_7  and  C_9
REMARK    5  A    between atoms: C_15  and  O_16
REMARK                            x       y       z     vdW  Elec       q    Type
REMARK                         _______ _______ _______ _____ _____    ______ ____
ROOT
ATOM      1  C   UNL     1       4.213   2.090  -1.196  0.00  0.00    +0.000 A 
ATOM      2  C   UNL     1       3.537   3.139  -1.815  0.00  0.00    +0.000 A 
ATOM      3  C   UNL     1       4.088   4.408  -1.833  0.00  0.00    +0.000 A 
ATOM      4  C   UNL     1       5.306   4.649  -1.223  0.00  0.00    +0.000 A 
ATOM      5  C   UNL     1       5.993   3.598  -0.599  0.00  0.00    +0.000 A 
ATOM      6  C   UNL     1       5.433   2.321  -0.598  0.00  0.00    +0.000 A 
ENDROOT
BRANCH   1   8
ATOM      7  C   UNL     1       4.041  -0.100  -2.225  0.00  0.00    +0.000 C 
ATOM      8  O   UNL     1       3.716   0.820  -1.158  0.00  0.00    +0.000 OA
ENDBRANCH   1   8
BRANCH   4   9
ATOM      9  C   UNL     1       5.909   6.017  -1.224  0.00  0.00    +0.000 C 
ATOM     10  O   UNL     1       6.133   6.576  -0.172  0.00  0.00    +0.000 OA
BRANCH   9  11
ATOM     11  C   UNL     1       6.252   6.703  -2.488  0.00  0.00    +0.000 A 
ATOM     12  C   UNL     1       7.100   6.083  -3.402  0.00  0.00    +0.000 A 
ATOM     13  C   UNL     1       7.413   6.726  -4.596  0.00  0.00    +0.000 A 
ATOM     14  C   UNL     1       6.921   7.993  -4.875  0.00  0.00    +0.000 A 
ATOM     15  C   UNL     1       6.111   8.621  -3.941  0.00  0.00    +0.000 A 
ATOM     16  C   UNL     1       5.773   7.977  -2.751  0.00  0.00    +0.000 A 
ENDBRANCH   9  11
ENDBRANCH   4   9
BRANCH   5  17
ATOM     17  O   UNL     1       7.201   3.845  -0.007  0.00  0.00    +0.000 OA
ATOM     18  H   UNL     1       7.905   4.334  -0.504  0.00  0.00    +0.000 HD
ENDBRANCH   5  17
TORSDOF 4
ENDMDL
MODEL 6
REMARK VINA RESULT:      -4.2      2.292      3.382
REMARK  Name = ox2_esm1_f8_ligand
REMARK  5 active torsions:
REMARK  status: ('A' for Active; 'I' for Inactive)
REMARK    1  A    between atoms: C_1  and  O_2
REMARK    2  A    between atoms: O_2  and  C_3
REMARK    3  A    between atoms: C_6  and  C_7
REMARK    4  A    between atoms: C_7  and  C_9
REMARK    5  A    between atoms: C_15  and  O_16
REMARK                            x       y       z     vdW  Elec       q    Type
REMARK                         _______ _______ _______ _____ _____    ______ ____
ROOT
ATOM      1  C   UNL     1       5.322  -2.532  -4.201  0.00  0.00    +0.000 A 
ATOM      2  C   UNL     1       4.354  -2.008  -3.347  0.00  0.00    +0.000 A 
ATOM      3  C   UNL     1       3.937  -0.696  -3.489  0.00  0.00    +0.000 A 
ATOM      4  C   UNL     1       4.490   0.110  -4.467  0.00  0.00    +0.000 A 
ATOM      5  C   UNL     1       5.463  -0.411  -5.332  0.00  0.00    +0.000 A 
ATOM      6  C   UNL     1       5.866  -1.738  -5.187  0.00  0.00    +0.000 A 
ENDROOT
BRANCH   1   8
ATOM      7  C   UNL     1       5.013  -4.768  -3.313  0.00  0.00    +0.000 C 
ATOM      8  O   UNL     1       5.760  -3.821  -4.109  0.00  0.00    +0.000 OA
ENDBRANCH   1   8
BRANCH   4   9
ATOM      9  C   UNL     1       4.059   1.533  -4.625  0.00  0.00    +0.000 C 
ATOM     10  O   UNL     1       3.501   1.882  -5.644  0.00  0.00    +0.000 OA
BRANCH   9  11
ATOM     11  C   UNL     1       4.289   2.527  -3.556  0.00  0.00    +0.000 A 
ATOM     12  C   UNL     1       3.211   3.007  -2.816  0.00  0.00    +0.000 A 
ATOM     13  C   UNL     1       3.430   3.936  -1.803  0.00  0.00    +0.000 A 
ATOM     14  C   UNL     1       4.705   4.418  -1.540  0.00  0.00    +0.000 A 
ATOM     15  C   UNL     1       5.767   3.966  -2.309  0.00  0.00    +0.000 A 
ATOM     16  C   UNL     1       5.561   3.020  -3.312  0.00  0.00    +0.000 A 
ENDBRANCH   9  11
ENDBRANCH   4   9
BRANCH   5  17
ATOM     17  O   UNL     1       5.996   0.393  -6.302  0.00  0.00    +0.000 OA
ATOM     18  H   UNL     1       6.881   0.178  -6.692  0.00  0.00    +0.000 HD
ENDBRANCH   5  17
TORSDOF 4
ENDMDL
MODEL 7
REMARK VINA RESULT:      -4.1     11.767     12.806
REMARK  Name = ox2_esm1_f8_ligand
REMARK  5 active torsions:
REMARK  status: ('A' for Active; 'I' for Inactive)
REMARK    1  A    between atoms: C_1  and  O_2
REMARK    2  A    between atoms: O_2  and  C_3
REMARK    3  A    between atoms: C_6  and  C_7
REMARK    4  A    between atoms: C_7  and  C_9
REMARK    5  A    between atoms: C_15  and  O_16
REMARK                            x       y       z     vdW  Elec       q    Type
REMARK                         _______ _______ _______ _____ _____    ______ ____
ROOT
ATOM      1  C   UNL     1      -4.833  -7.432  -0.440  0.00  0.00    +0.000 A 
ATOM      2  C   UNL     1      -5.107  -7.621   0.913  0.00  0.00    +0.000 A 
ATOM      3  C   UNL     1      -5.590  -6.575   1.679  0.00  0.00    +0.000 A 
ATOM      4  C   UNL     1      -5.791  -5.329   1.112  0.00  0.00    +0.000 A 
ATOM      5  C   UNL     1      -5.520  -5.132  -0.250  0.00  0.00    +0.000 A 
ATOM      6  C   UNL     1      -5.044  -6.197  -1.013  0.00  0.00    +0.000 A 
ENDROOT
BRANCH   1   8
ATOM      7  C   UNL     1      -3.122  -9.089  -0.899  0.00  0.00    +0.000 C 
ATOM      8  O   UNL     1      -4.364  -8.433  -1.239  0.00  0.00    +0.000 OA
ENDBRANCH   1   8
BRANCH   4   9
ATOM      9  C   UNL     1      -6.302  -4.186   1.928  0.00  0.00    +0.000 C 
ATOM     10  O   UNL     1      -7.449  -3.818   1.795  0.00  0.00    +0.000 OA
BRANCH   9  11
ATOM     11  C   UNL     1      -5.436  -3.497   2.909  0.00  0.00    +0.000 A 
ATOM     12  C   UNL     1      -4.087  -3.829   2.992  0.00  0.00    +0.000 A 
ATOM     13  C   UNL     1      -3.271  -3.172   3.909  0.00  0.00    +0.000 A 
ATOM     14  C   UNL     1      -3.790  -2.215   4.769  0.00  0.00    +0.000 A 
ATOM     15  C   UNL     1      -5.144  -1.920   4.708  0.00  0.00    +0.000 A 
ATOM     16  C   UNL     1      -5.966  -2.556   3.778  0.00  0.00    +0.000 A 
ENDBRANCH   9  11
ENDBRANCH   4   9
BRANCH   5  17
ATOM     17  O   UNL     1      -5.731  -3.898  -0.803  0.00  0.00    +0.000 OA
ATOM     18  H   UNL     1      -5.818  -3.804  -1.785  0.00  0.00    +0.000 HD
ENDBRANCH   5  17
TORSDOF 4
ENDMDL
MODEL 8
REMARK VINA RESULT:      -4.1      4.160      5.942
REMARK  Name = ox2_esm1_f8_ligand
REMARK  5 active torsions:
REMARK  status: ('A' for Active; 'I' for Inactive)
REMARK    1  A    between atoms: C_1  and  O_2
REMARK    2  A    between atoms: O_2  and  C_3
REMARK    3  A    between atoms: C_6  and  C_7
REMARK    4  A    between atoms: C_7  and  C_9
REMARK    5  A    between atoms: C_15  and  O_16
REMARK                            x       y       z     vdW  Elec       q    Type
REMARK                         _______ _______ _______ _____ _____    ______ ____
ROOT
ATOM      1  C   UNL     1       4.432  -0.809   4.278  0.00  0.00    +0.000 A 
ATOM      2  C   UNL     1       4.720   0.549   4.158  0.00  0.00    +0.000 A 
ATOM      3  C   UNL     1       5.235   1.050   2.975  0.00  0.00    +0.000 A 
ATOM      4  C   UNL     1       5.483   0.205   1.909  0.00  0.00    +0.000 A 
ATOM      5  C   UNL     1       5.193  -1.163   2.021  0.00  0.00    +0.000 A 
ATOM      6  C   UNL     1       4.664  -1.653   3.214  0.00  0.00    +0.000 A 
ENDROOT
BRANCH   1   8
ATOM      7  C   UNL     1       3.455  -0.475   6.473  0.00  0.00    +0.000 C 
ATOM      8  O   UNL     1       3.916  -1.350   5.419  0.00  0.00    +0.000 OA
ENDBRANCH   1   8
BRANCH   4   9
ATOM      9  C   UNL     1       6.049   0.729   0.628  0.00  0.00    +0.000 C 
ATOM     10  O   UNL     1       7.126   0.330   0.240  0.00  0.00    +0.000 OA
BRANCH   9  11
ATOM     11  C   UNL     1       5.314   1.719  -0.187  0.00  0.00    +0.000 A 
ATOM     12  C   UNL     1       5.808   3.015  -0.310  0.00  0.00    +0.000 A 
ATOM     13  C   UNL     1       5.120   3.944  -1.086  0.00  0.00    +0.000 A 
ATOM     14  C   UNL     1       3.927   3.608  -1.711  0.00  0.00    +0.000 A 
ATOM     15  C   UNL     1       3.420   2.327  -1.549  0.00  0.00    +0.000 A 
ATOM     16  C   UNL     1       4.113   1.382  -0.792  0.00  0.00    +0.000 A 
ENDBRANCH   9  11
ENDBRANCH   4   9
BRANCH   5  17
ATOM     17  O   UNL     1       5.434  -1.988   0.957  0.00  0.00    +0.000 OA
ATOM     18  H   UNL     1       5.544  -2.962   1.100  0.00  0.00    +0.000 HD
ENDBRANCH   5  17
TORSDOF 4
ENDMDL
MODEL 9
REMARK VINA RESULT:      -4.0     11.615     12.744
REMARK  Name = ox2_esm1_f8_ligand
REMARK  5 active torsions:
REMARK  status: ('A' for Active; 'I' for Inactive)
REMARK    1  A    between atoms: C_1  and  O_2
REMARK    2  A    between atoms: O_2  and  C_3
REMARK    3  A    between atoms: C_6  and  C_7
REMARK    4  A    between atoms: C_7  and  C_9
REMARK    5  A    between atoms: C_15  and  O_16
REMARK                            x       y       z     vdW  Elec       q    Type
REMARK                         _______ _______ _______ _____ _____    ______ ____
ROOT
ATOM      1  C   UNL     1      -5.456   7.533  -1.750  0.00  0.00    +0.000 A 
ATOM      2  C   UNL     1      -5.609   7.918  -0.419  0.00  0.00    +0.000 A 
ATOM      3  C   UNL     1      -6.279   7.097   0.470  0.00  0.00    +0.000 A 
ATOM      4  C   UNL     1      -6.817   5.896   0.043  0.00  0.00    +0.000 A 
ATOM      5  C   UNL     1      -6.665   5.501  -1.294  0.00  0.00    +0.000 A 
ATOM      6  C   UNL     1      -5.977   6.331  -2.178  0.00  0.00    +0.000 A 
ENDROOT
BRANCH   1   8
ATOM      7  C   UNL     1      -5.427   9.499  -3.170  0.00  0.00    +0.000 C 
ATOM      8  O   UNL     1      -4.796   8.302  -2.663  0.00  0.00    +0.000 OA
ENDBRANCH   1   8
BRANCH   4   9
ATOM      9  C   UNL     1      -7.554   5.004   0.990  0.00  0.00    +0.000 C 
ATOM     10  O   UNL     1      -8.726   4.762   0.798  0.00  0.00    +0.000 OA
BRANCH   9  11
ATOM     11  C   UNL     1      -6.877   4.396   2.155  0.00  0.00    +0.000 A 
ATOM     12  C   UNL     1      -6.116   3.242   1.987  0.00  0.00    +0.000 A 
ATOM     13  C   UNL     1      -5.471   2.677   3.084  0.00  0.00    +0.000 A 
ATOM     14  C   UNL     1      -5.603   3.227   4.351  0.00  0.00    +0.000 A 
ATOM     15  C   UNL     1      -6.396   4.353   4.517  0.00  0.00    +0.000 A 
ATOM     16  C   UNL     1      -7.029   4.940   3.421  0.00  0.00    +0.000 A 
ENDBRANCH   9  11
ENDBRANCH   4   9
BRANCH   5  17
ATOM     17  O   UNL     1      -7.193   4.307  -1.703  0.00  0.00    +0.000 OA
ATOM     18  H   UNL     1      -6.592   3.572  -1.988  0.00  0.00    +0.000 HD
ENDBRANCH   5  17
TORSDOF 4
ENDMDL
