REMARK  Name = bgox31_3_ligand
REMARK  5 active torsions:
REMARK  status: ('A' for Active; 'I' for Inactive)
REMARK    1  A    between atoms: C_1  and  O_2
REMARK    2  A    between atoms: O_2  and  C_3
REMARK    3  A    between atoms: C_6  and  C_7
REMARK    4  A    between atoms: C_7  and  C_9
REMARK    5  A    between atoms: C_15  and  O_16
REMARK                            x       y       z     vdW  Elec       q    Type
REMARK                         _______ _______ _______ _____ _____    ______ ____
ROOT
ATOM      1  C   UNL     1       3.045  -1.349  -8.601  0.00  0.00    +0.000 A 
ATOM      2  C   UNL     1       2.339  -0.323  -8.030  0.00  0.00    +0.000 A 
ATOM      3  C   UNL     1       1.017  -0.512  -7.645  0.00  0.00    +0.000 A 
ATOM      4  C   UNL     1       0.395  -1.725  -7.772  0.00  0.00    +0.000 A 
ATOM      5  C   UNL     1       1.139  -2.775  -8.340  0.00  0.00    +0.000 A 
ATOM      6  C   UNL     1       2.413  -2.604  -8.757  0.00  0.00    +0.000 A 
ENDROOT
BRANCH   1   8
ATOM      7  C   UNL     1       5.033  -2.080  -9.785  0.00  0.00    +0.000 C 
ATOM      8  O   UNL     1       4.383  -1.137  -8.982  0.00  0.00    +0.000 OA
ENDBRANCH   1   8
BRANCH   4   9
ATOM      9  C   UNL     1      -1.039  -1.932  -7.383  0.00  0.00    +0.000 C 
ATOM     10  O   UNL     1      -1.765  -2.605  -8.101  0.00  0.00    +0.000 OA
BRANCH   9  11
ATOM     11  C   UNL     1      -1.635  -1.326  -6.140  0.00  0.00    +0.000 A 
ATOM     12  C   UNL     1      -2.891  -0.780  -6.195  0.00  0.00    +0.000 A 
ATOM     13  C   UNL     1      -3.404  -0.207  -5.059  0.00  0.00    +0.000 A 
ATOM     14  C   UNL     1      -2.725  -0.305  -3.888  0.00  0.00    +0.000 A 
ATOM     15  C   UNL     1      -1.463  -0.935  -3.791  0.00  0.00    +0.000 A 
ATOM     16  C   UNL     1      -0.928  -1.414  -4.975  0.00  0.00    +0.000 A 
ENDBRANCH   9  11
ENDBRANCH   4   9
BRANCH   5  17
ATOM     17  O   UNL     1       0.444  -3.968  -8.521  0.00  0.00    +0.000 OA
ATOM     18  H   UNL     1       0.901  -4.753  -8.916  0.00  0.00    +0.000 HD
ENDBRANCH   5  17
TORSDOF 4
