MODEL 1
REMARK VINA RESULT:      -4.7      0.000      0.000
REMARK  Name = bgox31_3_ligand
REMARK  5 active torsions:
REMARK  status: ('A' for Active; 'I' for Inactive)
REMARK    1  A    between atoms: C_1  and  O_2
REMARK    2  A    between atoms: O_2  and  C_3
REMARK    3  A    between atoms: C_6  and  C_7
REMARK    4  A    between atoms: C_7  and  C_9
REMARK    5  A    between atoms: C_15  and  O_16
REMARK                            x       y       z     vdW  Elec       q    Type
REMARK                         _______ _______ _______ _____ _____    ______ ____
ROOT
ATOM      1  C   UNL     1       6.707   3.202  -4.459  0.00  0.00    +0.000 A 
ATOM      2  C   UNL     1       5.936   2.563  -3.524  0.00  0.00    +0.000 A 
ATOM      3  C   UNL     1       5.736   3.134  -2.273  0.00  0.00    +0.000 A 
ATOM      4  C   UNL     1       6.252   4.361  -1.949  0.00  0.00    +0.000 A 
ATOM      5  C   UNL     1       7.024   5.014  -2.926  0.00  0.00    +0.000 A 
ATOM      6  C   UNL     1       7.263   4.461  -4.136  0.00  0.00    +0.000 A 
ENDROOT
BRANCH   1   8
ATOM      7  C   UNL     1       6.907   1.213  -5.835  0.00  0.00    +0.000 C 
ATOM      8  O   UNL     1       6.895   2.607  -5.721  0.00  0.00    +0.000 OA
ENDBRANCH   1   8
BRANCH   4   9
ATOM      9  C   UNL     1       6.063   4.973  -0.593  0.00  0.00    +0.000 C 
ATOM     10  O   UNL     1       5.324   5.940  -0.468  0.00  0.00    +0.000 OA
BRANCH   9  11
ATOM     11  C   UNL     1       6.766   4.455   0.634  0.00  0.00    +0.000 A 
ATOM     12  C   UNL     1       6.146   3.516   1.417  0.00  0.00    +0.000 A 
ATOM     13  C   UNL     1       6.791   3.078   2.546  0.00  0.00    +0.000 A 
ATOM     14  C   UNL     1       8.065   3.477   2.792  0.00  0.00    +0.000 A 
ATOM     15  C   UNL     1       8.754   4.383   1.954  0.00  0.00    +0.000 A 
ATOM     16  C   UNL     1       8.039   4.883   0.879  0.00  0.00    +0.000 A 
ENDBRANCH   9  11
ENDBRANCH   4   9
BRANCH   5  17
ATOM     17  O   UNL     1       7.592   6.222  -2.528  0.00  0.00    +0.000 OA
ATOM     18  H   UNL     1       8.576   6.310  -2.466  0.00  0.00    +0.000 HD
ENDBRANCH   5  17
TORSDOF 4
ENDMDL
MODEL 2
REMARK VINA RESULT:      -4.5     11.249     13.140
REMARK  Name = bgox31_3_ligand
REMARK  5 active torsions:
REMARK  status: ('A' for Active; 'I' for Inactive)
REMARK    1  A    between atoms: C_1  and  O_2
REMARK    2  A    between atoms: O_2  and  C_3
REMARK    3  A    between atoms: C_6  and  C_7
REMARK    4  A    between atoms: C_7  and  C_9
REMARK    5  A    between atoms: C_15  and  O_16
REMARK                            x       y       z     vdW  Elec       q    Type
REMARK                         _______ _______ _______ _____ _____    ______ ____
ROOT
ATOM      1  C   UNL     1      -1.311   2.945 -10.322  0.00  0.00    +0.000 A 
ATOM      2  C   UNL     1      -2.501   2.395 -10.721  0.00  0.00    +0.000 A 
ATOM      3  C   UNL     1      -3.047   1.325 -10.022  0.00  0.00    +0.000 A 
ATOM      4  C   UNL     1      -2.453   0.820  -8.897  0.00  0.00    +0.000 A 
ATOM      5  C   UNL     1      -1.243   1.408  -8.487  0.00  0.00    +0.000 A 
ATOM      6  C   UNL     1      -0.673   2.423  -9.173  0.00  0.00    +0.000 A 
ENDROOT
BRANCH   1   8
ATOM      7  C   UNL     1      -1.235   5.325 -10.787  0.00  0.00    +0.000 C 
ATOM      8  O   UNL     1      -0.776   4.029 -11.042  0.00  0.00    +0.000 OA
ENDBRANCH   1   8
BRANCH   4   9
ATOM      9  C   UNL     1      -3.022  -0.351  -8.151  0.00  0.00    +0.000 C 
ATOM     10  O   UNL     1      -2.379  -1.389  -8.083  0.00  0.00    +0.000 OA
BRANCH   9  11
ATOM     11  C   UNL     1      -4.373  -0.308  -7.488  0.00  0.00    +0.000 A 
ATOM     12  C   UNL     1      -5.076  -1.473  -7.321  0.00  0.00    +0.000 A 
ATOM     13  C   UNL     1      -6.317  -1.409  -6.741  0.00  0.00    +0.000 A 
ATOM     14  C   UNL     1      -6.765  -0.232  -6.233  0.00  0.00    +0.000 A 
ATOM     15  C   UNL     1      -6.021   0.967  -6.323  0.00  0.00    +0.000 A 
ATOM     16  C   UNL     1      -4.817   0.888  -7.003  0.00  0.00    +0.000 A 
ENDBRANCH   9  11
ENDBRANCH   4   9
BRANCH   5  17
ATOM     17  O   UNL     1      -0.635   0.813  -7.384  0.00  0.00    +0.000 OA
ATOM     18  H   UNL     1       0.268   1.103  -7.100  0.00  0.00    +0.000 HD
ENDBRANCH   5  17
TORSDOF 4
ENDMDL
MODEL 3
REMARK VINA RESULT:      -4.5     11.257     13.182
REMARK  Name = bgox31_3_ligand
REMARK  5 active torsions:
REMARK  status: ('A' for Active; 'I' for Inactive)
REMARK    1  A    between atoms: C_1  and  O_2
REMARK    2  A    between atoms: O_2  and  C_3
REMARK    3  A    between atoms: C_6  and  C_7
REMARK    4  A    between atoms: C_7  and  C_9
REMARK    5  A    between atoms: C_15  and  O_16
REMARK                            x       y       z     vdW  Elec       q    Type
REMARK                         _______ _______ _______ _____ _____    ______ ____
ROOT
ATOM      1  C   UNL     1      -1.328   2.934 -10.326  0.00  0.00    +0.000 A 
ATOM      2  C   UNL     1      -2.517   2.379 -10.718  0.00  0.00    +0.000 A 
ATOM      3  C   UNL     1      -3.057   1.309 -10.014  0.00  0.00    +0.000 A 
ATOM      4  C   UNL     1      -2.457   0.809  -8.889  0.00  0.00    +0.000 A 
ATOM      5  C   UNL     1      -1.248   1.403  -8.486  0.00  0.00    +0.000 A 
ATOM      6  C   UNL     1      -0.684   2.418  -9.177  0.00  0.00    +0.000 A 
ENDROOT
BRANCH   1   8
ATOM      7  C   UNL     1      -1.248   5.315 -10.784  0.00  0.00    +0.000 C 
ATOM      8  O   UNL     1      -0.800   4.017 -11.051  0.00  0.00    +0.000 OA
ENDBRANCH   1   8
BRANCH   4   9
ATOM      9  C   UNL     1      -3.019  -0.361  -8.138  0.00  0.00    +0.000 C 
ATOM     10  O   UNL     1      -2.385  -1.406  -8.092  0.00  0.00    +0.000 OA
BRANCH   9  11
ATOM     11  C   UNL     1      -4.353  -0.310  -7.442  0.00  0.00    +0.000 A 
ATOM     12  C   UNL     1      -4.839   0.896  -7.008  0.00  0.00    +0.000 A 
ATOM     13  C   UNL     1      -6.043   0.917  -6.351  0.00  0.00    +0.000 A 
ATOM     14  C   UNL     1      -6.781  -0.219  -6.258  0.00  0.00    +0.000 A 
ATOM     15  C   UNL     1      -6.336  -1.459  -6.770  0.00  0.00    +0.000 A 
ATOM     16  C   UNL     1      -5.073  -1.466  -7.338  0.00  0.00    +0.000 A 
ENDBRANCH   9  11
ENDBRANCH   4   9
BRANCH   5  17
ATOM     17  O   UNL     1      -0.634   0.814  -7.383  0.00  0.00    +0.000 OA
ATOM     18  H   UNL     1      -1.144   0.677  -6.546  0.00  0.00    +0.000 HD
ENDBRANCH   5  17
TORSDOF 4
ENDMDL
MODEL 4
REMARK VINA RESULT:      -4.4      2.970      4.645
REMARK  Name = bgox31_3_ligand
REMARK  5 active torsions:
REMARK  status: ('A' for Active; 'I' for Inactive)
REMARK    1  A    between atoms: C_1  and  O_2
REMARK    2  A    between atoms: O_2  and  C_3
REMARK    3  A    between atoms: C_6  and  C_7
REMARK    4  A    between atoms: C_7  and  C_9
REMARK    5  A    between atoms: C_15  and  O_16
REMARK                            x       y       z     vdW  Elec       q    Type
REMARK                         _______ _______ _______ _____ _____    ______ ____
ROOT
ATOM      1  C   UNL     1       6.776   6.547  -7.726  0.00  0.00    +0.000 A 
ATOM      2  C   UNL     1       6.339   7.331  -6.691  0.00  0.00    +0.000 A 
ATOM      3  C   UNL     1       6.711   7.038  -5.384  0.00  0.00    +0.000 A 
ATOM      4  C   UNL     1       7.555   6.001  -5.090  0.00  0.00    +0.000 A 
ATOM      5  C   UNL     1       8.013   5.217  -6.165  0.00  0.00    +0.000 A 
ATOM      6  C   UNL     1       7.634   5.461  -7.439  0.00  0.00    +0.000 A 
ENDROOT
BRANCH   1   8
ATOM      7  C   UNL     1       7.347   7.312  -9.956  0.00  0.00    +0.000 C 
ATOM      8  O   UNL     1       6.389   6.863  -9.041  0.00  0.00    +0.000 OA
ENDBRANCH   1   8
BRANCH   4   9
ATOM      9  C   UNL     1       7.942   5.660  -3.681  0.00  0.00    +0.000 C 
ATOM     10  O   UNL     1       9.068   5.929  -3.286  0.00  0.00    +0.000 OA
BRANCH   9  11
ATOM     11  C   UNL     1       6.998   4.979  -2.726  0.00  0.00    +0.000 A 
ATOM     12  C   UNL     1       6.664   5.603  -1.552  0.00  0.00    +0.000 A 
ATOM     13  C   UNL     1       5.826   4.953  -0.683  0.00  0.00    +0.000 A 
ATOM     14  C   UNL     1       5.248   3.782  -1.051  0.00  0.00    +0.000 A 
ATOM     15  C   UNL     1       5.515   3.159  -2.292  0.00  0.00    +0.000 A 
ATOM     16  C   UNL     1       6.443   3.790  -3.104  0.00  0.00    +0.000 A 
ENDBRANCH   9  11
ENDBRANCH   4   9
BRANCH   5  17
ATOM     17  O   UNL     1       8.807   4.129  -5.813  0.00  0.00    +0.000 OA
ATOM     18  H   UNL     1       8.776   3.298  -6.352  0.00  0.00    +0.000 HD
ENDBRANCH   5  17
TORSDOF 4
ENDMDL
MODEL 5
REMARK VINA RESULT:      -4.4     11.018     13.492
REMARK  Name = bgox31_3_ligand
REMARK  5 active torsions:
REMARK  status: ('A' for Active; 'I' for Inactive)
REMARK    1  A    between atoms: C_1  and  O_2
REMARK    2  A    between atoms: O_2  and  C_3
REMARK    3  A    between atoms: C_6  and  C_7
REMARK    4  A    between atoms: C_7  and  C_9
REMARK    5  A    between atoms: C_15  and  O_16
REMARK                            x       y       z     vdW  Elec       q    Type
REMARK                         _______ _______ _______ _____ _____    ______ ____
ROOT
ATOM      1  C   UNL     1      -5.329  -1.128  -7.480  0.00  0.00    +0.000 A 
ATOM      2  C   UNL     1      -5.258   0.234  -7.356  0.00  0.00    +0.000 A 
ATOM      3  C   UNL     1      -4.048   0.892  -7.539  0.00  0.00    +0.000 A 
ATOM      4  C   UNL     1      -2.909   0.222  -7.894  0.00  0.00    +0.000 A 
ATOM      5  C   UNL     1      -3.001  -1.175  -8.039  0.00  0.00    +0.000 A 
ATOM      6  C   UNL     1      -4.158  -1.840  -7.828  0.00  0.00    +0.000 A 
ENDROOT
BRANCH   1   8
ATOM      7  C   UNL     1      -7.377  -1.417  -6.211  0.00  0.00    +0.000 C 
ATOM      8  O   UNL     1      -6.565  -1.775  -7.292  0.00  0.00    +0.000 OA
ENDBRANCH   1   8
BRANCH   4   9
ATOM      9  C   UNL     1      -1.592   0.920  -8.069  0.00  0.00    +0.000 C 
ATOM     10  O   UNL     1      -0.706   0.746  -7.244  0.00  0.00    +0.000 OA
BRANCH   9  11
ATOM     11  C   UNL     1      -1.317   1.849  -9.221  0.00  0.00    +0.000 A 
ATOM     12  C   UNL     1      -2.032   1.709 -10.383  0.00  0.00    +0.000 A 
ATOM     13  C   UNL     1      -1.745   2.547 -11.430  0.00  0.00    +0.000 A 
ATOM     14  C   UNL     1      -0.865   3.566 -11.259  0.00  0.00    +0.000 A 
ATOM     15  C   UNL     1      -0.175   3.778 -10.043  0.00  0.00    +0.000 A 
ATOM     16  C   UNL     1      -0.412   2.855  -9.038  0.00  0.00    +0.000 A 
ENDBRANCH   9  11
ENDBRANCH   4   9
BRANCH   5  17
ATOM     17  O   UNL     1      -1.803  -1.825  -8.325  0.00  0.00    +0.000 OA
ATOM     18  H   UNL     1      -1.748  -2.812  -8.266  0.00  0.00    +0.000 HD
ENDBRANCH   5  17
TORSDOF 4
ENDMDL
MODEL 6
REMARK VINA RESULT:      -4.3      4.315      6.093
REMARK  Name = bgox31_3_ligand
REMARK  5 active torsions:
REMARK  status: ('A' for Active; 'I' for Inactive)
REMARK    1  A    between atoms: C_1  and  O_2
REMARK    2  A    between atoms: O_2  and  C_3
REMARK    3  A    between atoms: C_6  and  C_7
REMARK    4  A    between atoms: C_7  and  C_9
REMARK    5  A    between atoms: C_15  and  O_16
REMARK                            x       y       z     vdW  Elec       q    Type
REMARK                         _______ _______ _______ _____ _____    ______ ____
ROOT
ATOM      1  C   UNL     1       6.909   8.017  -4.820  0.00  0.00    +0.000 A 
ATOM      2  C   UNL     1       7.691   7.203  -4.044  0.00  0.00    +0.000 A 
ATOM      3  C   UNL     1       7.975   5.906  -4.456  0.00  0.00    +0.000 A 
ATOM      4  C   UNL     1       7.535   5.417  -5.657  0.00  0.00    +0.000 A 
ATOM      5  C   UNL     1       6.751   6.272  -6.452  0.00  0.00    +0.000 A 
ATOM      6  C   UNL     1       6.430   7.523  -6.055  0.00  0.00    +0.000 A 
ENDROOT
BRANCH   1   8
ATOM      7  C   UNL     1       5.749   9.534  -3.323  0.00  0.00    +0.000 C 
ATOM      8  O   UNL     1       6.634   9.327  -4.386  0.00  0.00    +0.000 OA
ENDBRANCH   1   8
BRANCH   4   9
ATOM      9  C   UNL     1       7.815   4.011  -6.098  0.00  0.00    +0.000 C 
ATOM     10  O   UNL     1       8.346   3.816  -7.182  0.00  0.00    +0.000 OA
BRANCH   9  11
ATOM     11  C   UNL     1       7.453   2.813  -5.260  0.00  0.00    +0.000 A 
ATOM     12  C   UNL     1       6.269   2.811  -4.568  0.00  0.00    +0.000 A 
ATOM     13  C   UNL     1       5.972   1.723  -3.788  0.00  0.00    +0.000 A 
ATOM     14  C   UNL     1       6.777   0.631  -3.816  0.00  0.00    +0.000 A 
ATOM     15  C   UNL     1       7.962   0.581  -4.586  0.00  0.00    +0.000 A 
ATOM     16  C   UNL     1       8.286   1.732  -5.283  0.00  0.00    +0.000 A 
ENDBRANCH   9  11
ENDBRANCH   4   9
BRANCH   5  17
ATOM     17  O   UNL     1       6.261   5.709  -7.628  0.00  0.00    +0.000 OA
ATOM     18  H   UNL     1       5.311   5.832  -7.878  0.00  0.00    +0.000 HD
ENDBRANCH   5  17
TORSDOF 4
ENDMDL
MODEL 7
REMARK VINA RESULT:      -4.2      5.602      7.873
REMARK  Name = bgox31_3_ligand
REMARK  5 active torsions:
REMARK  status: ('A' for Active; 'I' for Inactive)
REMARK    1  A    between atoms: C_1  and  O_2
REMARK    2  A    between atoms: O_2  and  C_3
REMARK    3  A    between atoms: C_6  and  C_7
REMARK    4  A    between atoms: C_7  and  C_9
REMARK    5  A    between atoms: C_15  and  O_16
REMARK                            x       y       z     vdW  Elec       q    Type
REMARK                         _______ _______ _______ _____ _____    ______ ____
ROOT
ATOM      1  C   UNL     1       9.376  -3.601  -0.660  0.00  0.00    +0.000 A 
ATOM      2  C   UNL     1       8.603  -3.726  -1.784  0.00  0.00    +0.000 A 
ATOM      3  C   UNL     1       8.726  -2.812  -2.824  0.00  0.00    +0.000 A 
ATOM      4  C   UNL     1       9.645  -1.798  -2.788  0.00  0.00    +0.000 A 
ATOM      5  C   UNL     1      10.447  -1.695  -1.637  0.00  0.00    +0.000 A 
ATOM      6  C   UNL     1      10.318  -2.548  -0.597  0.00  0.00    +0.000 A 
ENDROOT
BRANCH   1   8
ATOM      7  C   UNL     1      10.367  -4.960   1.090  0.00  0.00    +0.000 C 
ATOM      8  O   UNL     1       9.237  -4.538   0.381  0.00  0.00    +0.000 OA
ENDBRANCH   1   8
BRANCH   4   9
ATOM      9  C   UNL     1       9.768  -0.792  -3.894  0.00  0.00    +0.000 C 
ATOM     10  O   UNL     1      10.818  -0.705  -4.513  0.00  0.00    +0.000 OA
BRANCH   9  11
ATOM     11  C   UNL     1       8.644   0.139  -4.268  0.00  0.00    +0.000 A 
ATOM     12  C   UNL     1       7.427   0.004  -3.653  0.00  0.00    +0.000 A 
ATOM     13  C   UNL     1       6.409   0.843  -4.029  0.00  0.00    +0.000 A 
ATOM     14  C   UNL     1       6.656   1.858  -4.894  0.00  0.00    +0.000 A 
ATOM     15  C   UNL     1       7.926   2.066  -5.481  0.00  0.00    +0.000 A 
ATOM     16  C   UNL     1       8.905   1.142  -5.158  0.00  0.00    +0.000 A 
ENDBRANCH   9  11
ENDBRANCH   4   9
BRANCH   5  17
ATOM     17  O   UNL     1      11.313  -0.604  -1.610  0.00  0.00    +0.000 OA
ATOM     18  H   UNL     1      12.047  -0.538  -2.271  0.00  0.00    +0.000 HD
ENDBRANCH   5  17
TORSDOF 4
ENDMDL
MODEL 8
REMARK VINA RESULT:      -4.2      1.176      2.114
REMARK  Name = bgox31_3_ligand
REMARK  5 active torsions:
REMARK  status: ('A' for Active; 'I' for Inactive)
REMARK    1  A    between atoms: C_1  and  O_2
REMARK    2  A    between atoms: O_2  and  C_3
REMARK    3  A    between atoms: C_6  and  C_7
REMARK    4  A    between atoms: C_7  and  C_9
REMARK    5  A    between atoms: C_15  and  O_16
REMARK                            x       y       z     vdW  Elec       q    Type
REMARK                         _______ _______ _______ _____ _____    ______ ____
ROOT
ATOM      1  C   UNL     1       7.256   4.224  -4.701  0.00  0.00    +0.000 A 
ATOM      2  C   UNL     1       7.713   5.353  -4.073  0.00  0.00    +0.000 A 
ATOM      3  C   UNL     1       7.353   5.615  -2.756  0.00  0.00    +0.000 A 
ATOM      4  C   UNL     1       6.584   4.745  -2.031  0.00  0.00    +0.000 A 
ATOM      5  C   UNL     1       6.140   3.579  -2.683  0.00  0.00    +0.000 A 
ATOM      6  C   UNL     1       6.445   3.323  -3.974  0.00  0.00    +0.000 A 
ENDROOT
BRANCH   1   8
ATOM      7  C   UNL     1       8.473   2.897  -6.328  0.00  0.00    +0.000 C 
ATOM      8  O   UNL     1       7.634   3.977  -6.034  0.00  0.00    +0.000 OA
ENDBRANCH   1   8
BRANCH   4   9
ATOM      9  C   UNL     1       6.169   5.031  -0.618  0.00  0.00    +0.000 C 
ATOM     10  O   UNL     1       5.198   5.744  -0.410  0.00  0.00    +0.000 OA
BRANCH   9  11
ATOM     11  C   UNL     1       6.916   4.484   0.570  0.00  0.00    +0.000 A 
ATOM     12  C   UNL     1       8.176   4.949   0.842  0.00  0.00    +0.000 A 
ATOM     13  C   UNL     1       8.851   4.418   1.911  0.00  0.00    +0.000 A 
ATOM     14  C   UNL     1       8.221   3.551   2.744  0.00  0.00    +0.000 A 
ATOM     15  C   UNL     1       6.892   3.119   2.528  0.00  0.00    +0.000 A 
ATOM     16  C   UNL     1       6.274   3.596   1.384  0.00  0.00    +0.000 A 
ENDBRANCH   9  11
ENDBRANCH   4   9
BRANCH   5  17
ATOM     17  O   UNL     1       5.298   2.762  -1.934  0.00  0.00    +0.000 OA
ATOM     18  H   UNL     1       5.573   2.460  -1.032  0.00  0.00    +0.000 HD
ENDBRANCH   5  17
TORSDOF 4
ENDMDL
MODEL 9
REMARK VINA RESULT:      -4.1     12.981     14.894
REMARK  Name = bgox31_3_ligand
REMARK  5 active torsions:
REMARK  status: ('A' for Active; 'I' for Inactive)
REMARK    1  A    between atoms: C_1  and  O_2
REMARK    2  A    between atoms: O_2  and  C_3
REMARK    3  A    between atoms: C_6  and  C_7
REMARK    4  A    between atoms: C_7  and  C_9
REMARK    5  A    between atoms: C_15  and  O_16
REMARK                            x       y       z     vdW  Elec       q    Type
REMARK                         _______ _______ _______ _____ _____    ______ ____
ROOT
ATOM      1  C   UNL     1      -3.718  -6.085  -4.175  0.00  0.00    +0.000 A 
ATOM      2  C   UNL     1      -4.847  -5.567  -4.755  0.00  0.00    +0.000 A 
ATOM      3  C   UNL     1      -4.763  -4.886  -5.963  0.00  0.00    +0.000 A 
ATOM      4  C   UNL     1      -3.578  -4.752  -6.635  0.00  0.00    +0.000 A 
ATOM      5  C   UNL     1      -2.431  -5.307  -6.038  0.00  0.00    +0.000 A 
ATOM      6  C   UNL     1      -2.482  -5.940  -4.845  0.00  0.00    +0.000 A 
ENDROOT
BRANCH   1   8
ATOM      7  C   UNL     1      -4.953  -7.561  -2.696  0.00  0.00    +0.000 C 
ATOM      8  O   UNL     1      -3.825  -6.773  -2.952  0.00  0.00    +0.000 OA
ENDBRANCH   1   8
BRANCH   4   9
ATOM      9  C   UNL     1      -3.473  -3.996  -7.927  0.00  0.00    +0.000 C 
ATOM     10  O   UNL     1      -3.371  -4.614  -8.977  0.00  0.00    +0.000 OA
BRANCH   9  11
ATOM     11  C   UNL     1      -3.472  -2.491  -7.985  0.00  0.00    +0.000 A 
ATOM     12  C   UNL     1      -4.558  -1.800  -7.515  0.00  0.00    +0.000 A 
ATOM     13  C   UNL     1      -4.549  -0.431  -7.604  0.00  0.00    +0.000 A 
ATOM     14  C   UNL     1      -3.431   0.210  -8.029  0.00  0.00    +0.000 A 
ATOM     15  C   UNL     1      -2.269  -0.480  -8.443  0.00  0.00    +0.000 A 
ATOM     16  C   UNL     1      -2.346  -1.863  -8.436  0.00  0.00    +0.000 A 
ENDBRANCH   9  11
ENDBRANCH   4   9
BRANCH   5  17
ATOM     17  O   UNL     1      -1.237  -5.080  -6.717  0.00  0.00    +0.000 OA
ATOM     18  H   UNL     1      -0.970  -5.676  -7.462  0.00  0.00    +0.000 HD
ENDBRANCH   5  17
TORSDOF 4
ENDMDL
