REMARK  Name = s3_orig_f12_ligand
REMARK  12 active torsions:
REMARK  status: ('A' for Active; 'I' for Inactive)
REMARK    1  A    between atoms: C_1  and  C_2
REMARK    2  A    between atoms: C_2  and  C_3
REMARK    3  A    between atoms: C_3  and  C_4
REMARK    4  A    between atoms: C_4  and  C_5
REMARK    5  A    between atoms: C_5  and  C_6
REMARK    6  A    between atoms: C_5  and  O_8
REMARK    7  A    between atoms: C_6  and  C_7
REMARK    8  A    between atoms: O_8  and  C_9
REMARK    9  A    between atoms: C_9  and  C_11
REMARK   10  A    between atoms: C_12  and  C_13
REMARK   11  A    between atoms: C_16  and  O_17
REMARK   12  A    between atoms: O_17  and  C_18
REMARK                            x       y       z     vdW  Elec       q    Type
REMARK                         _______ _______ _______ _____ _____    ______ ____
ROOT
ATOM      1  C   UNL     1      -3.567  -2.793   0.620  0.00  0.00    +0.000 C 
ATOM      2  O   UNL     1      -3.608  -3.501  -0.353  0.00  0.00    +0.000 OA
ENDROOT
BRANCH   1   3
ATOM      3  C   UNL     1      -2.456  -2.787   1.600  0.00  0.00    +0.000 C 
ATOM      4  C   UNL     1      -1.397  -3.582   1.470  0.00  0.00    +0.000 C 
BRANCH   4   5
ATOM      5  C   UNL     1      -0.303  -3.691   2.468  0.00  0.00    +0.000 A 
ATOM      6  C   UNL     1       0.577  -4.758   2.395  0.00  0.00    +0.000 A 
ATOM      7  C   UNL     1       1.560  -4.930   3.363  0.00  0.00    +0.000 A 
ATOM      8  C   UNL     1       1.718  -4.010   4.379  0.00  0.00    +0.000 A 
ATOM      9  C   UNL     1       0.879  -2.928   4.417  0.00  0.00    +0.000 A 
ATOM     10  C   UNL     1      -0.129  -2.768   3.467  0.00  0.00    +0.000 A 
BRANCH   8  11
ATOM     11  O   UNL     1       2.690  -4.131   5.351  0.00  0.00    +0.000 OA
ATOM     12  C   UNL     1       3.094  -5.437   5.718  0.00  0.00    +0.000 C 
ENDBRANCH   8  11
ENDBRANCH   4   5
ENDBRANCH   1   3
BRANCH   1  13
ATOM     13  O   UNL     1      -4.527  -2.042   0.841  0.00  0.00    +0.000 OA
BRANCH  13  14
ATOM     14  C   UNL     1      -5.682  -1.408   0.781  0.00  0.00    +0.000 C 
BRANCH  14  15
ATOM     15  C   UNL     1      -5.907  -0.860  -0.616  0.00  0.00    +0.000 C 
ATOM     16  C   UNL     1      -7.260  -0.184  -0.808  0.00  0.00    +0.000 C 
ENDBRANCH  14  15
BRANCH  14  17
ATOM     17  C   UNL     1      -6.840  -2.309   1.180  0.00  0.00    +0.000 C 
BRANCH  17  18
ATOM     18  C   UNL     1      -6.572  -3.196   2.351  0.00  0.00    +0.000 C 
BRANCH  18  20
ATOM     19  C   UNL     1      -7.524  -4.442   4.297  0.00  0.00    +0.000 C 
ATOM     20  C   UNL     1      -7.818  -3.517   3.136  0.00  0.00    +0.000 C 
ENDBRANCH  18  20
ENDBRANCH  17  18
ENDBRANCH  14  17
ENDBRANCH  13  14
ENDBRANCH   1  13
TORSDOF 9
