MODEL 1
REMARK VINA RESULT:      -7.3      0.000      0.000
REMARK  Name = s3_orig_f12_ligand
REMARK  12 active torsions:
REMARK  status: ('A' for Active; 'I' for Inactive)
REMARK    1  A    between atoms: C_1  and  C_2
REMARK    2  A    between atoms: C_2  and  C_3
REMARK    3  A    between atoms: C_3  and  C_4
REMARK    4  A    between atoms: C_4  and  C_5
REMARK    5  A    between atoms: C_5  and  C_6
REMARK    6  A    between atoms: C_5  and  O_8
REMARK    7  A    between atoms: C_6  and  C_7
REMARK    8  A    between atoms: O_8  and  C_9
REMARK    9  A    between atoms: C_9  and  C_11
REMARK   10  A    between atoms: C_12  and  C_13
REMARK   11  A    between atoms: C_16  and  O_17
REMARK   12  A    between atoms: O_17  and  C_18
REMARK                            x       y       z     vdW  Elec       q    Type
REMARK                         _______ _______ _______ _____ _____    ______ ____
ROOT
ATOM      1  C   UNL     1      -7.713  -3.468   2.857  0.00  0.00    +0.000 C 
ATOM      2  O   UNL     1      -8.356  -3.895   3.781  0.00  0.00    +0.000 OA
ENDROOT
BRANCH   1   3
ATOM      3  C   UNL     1      -6.250  -3.648   2.707  0.00  0.00    +0.000 C 
ATOM      4  C   UNL     1      -5.382  -2.714   3.090  0.00  0.00    +0.000 C 
BRANCH   4   5
ATOM      5  C   UNL     1      -3.915  -2.795   2.876  0.00  0.00    +0.000 A 
ATOM      6  C   UNL     1      -3.061  -2.285   3.839  0.00  0.00    +0.000 A 
ATOM      7  C   UNL     1      -1.687  -2.273   3.629  0.00  0.00    +0.000 A 
ATOM      8  C   UNL     1      -1.143  -2.824   2.487  0.00  0.00    +0.000 A 
ATOM      9  C   UNL     1      -1.989  -3.375   1.561  0.00  0.00    +0.000 A 
ATOM     10  C   UNL     1      -3.370  -3.360   1.752  0.00  0.00    +0.000 A 
BRANCH   8  11
ATOM     11  O   UNL     1       0.215  -2.850   2.244  0.00  0.00    +0.000 OA
ATOM     12  C   UNL     1       1.081  -2.928   3.361  0.00  0.00    +0.000 C 
ENDBRANCH   8  11
ENDBRANCH   4   5
ENDBRANCH   1   3
BRANCH   1  13
ATOM     13  O   UNL     1      -8.299  -2.807   1.989  0.00  0.00    +0.000 OA
BRANCH  13  14
ATOM     14  C   UNL     1      -8.598  -2.123   0.901  0.00  0.00    +0.000 C 
BRANCH  14  15
ATOM     15  C   UNL     1      -8.528  -0.634   1.184  0.00  0.00    +0.000 C 
ATOM     16  C   UNL     1      -9.604   0.183   0.478  0.00  0.00    +0.000 C 
ENDBRANCH  14  15
BRANCH  14  17
ATOM     17  C   UNL     1      -7.679  -2.478  -0.257  0.00  0.00    +0.000 C 
BRANCH  17  18
ATOM     18  C   UNL     1      -6.838  -1.351  -0.760  0.00  0.00    +0.000 C 
BRANCH  18  20
ATOM     19  C   UNL     1      -4.791  -0.319   0.236  0.00  0.00    +0.000 C 
ATOM     20  C   UNL     1      -5.374  -1.535  -0.452  0.00  0.00    +0.000 C 
ENDBRANCH  18  20
ENDBRANCH  17  18
ENDBRANCH  14  17
ENDBRANCH  13  14
ENDBRANCH   1  13
TORSDOF 9
ENDMDL
MODEL 2
REMARK VINA RESULT:      -6.6      1.646      6.878
REMARK  Name = s3_orig_f12_ligand
REMARK  12 active torsions:
REMARK  status: ('A' for Active; 'I' for Inactive)
REMARK    1  A    between atoms: C_1  and  C_2
REMARK    2  A    between atoms: C_2  and  C_3
REMARK    3  A    between atoms: C_3  and  C_4
REMARK    4  A    between atoms: C_4  and  C_5
REMARK    5  A    between atoms: C_5  and  C_6
REMARK    6  A    between atoms: C_5  and  O_8
REMARK    7  A    between atoms: C_6  and  C_7
REMARK    8  A    between atoms: O_8  and  C_9
REMARK    9  A    between atoms: C_9  and  C_11
REMARK   10  A    between atoms: C_12  and  C_13
REMARK   11  A    between atoms: C_16  and  O_17
REMARK   12  A    between atoms: O_17  and  C_18
REMARK                            x       y       z     vdW  Elec       q    Type
REMARK                         _______ _______ _______ _____ _____    ______ ____
ROOT
ATOM      1  C   UNL     1      -2.208  -2.164   3.781  0.00  0.00    +0.000 C 
ATOM      2  O   UNL     1      -1.822  -1.800   4.862  0.00  0.00    +0.000 OA
ENDROOT
BRANCH   1   3
ATOM      3  C   UNL     1      -3.605  -2.031   3.307  0.00  0.00    +0.000 C 
ATOM      4  C   UNL     1      -4.527  -2.957   3.560  0.00  0.00    +0.000 C 
BRANCH   4   5
ATOM      5  C   UNL     1      -5.913  -2.927   3.029  0.00  0.00    +0.000 A 
ATOM      6  C   UNL     1      -6.293  -1.899   2.183  0.00  0.00    +0.000 A 
ATOM      7  C   UNL     1      -7.605  -1.800   1.736  0.00  0.00    +0.000 A 
ATOM      8  C   UNL     1      -8.540  -2.757   2.076  0.00  0.00    +0.000 A 
ATOM      9  C   UNL     1      -8.147  -3.801   2.870  0.00  0.00    +0.000 A 
ATOM     10  C   UNL     1      -6.839  -3.887   3.347  0.00  0.00    +0.000 A 
BRANCH   8  11
ATOM     11  O   UNL     1      -9.849  -2.708   1.642  0.00  0.00    +0.000 OA
ATOM     12  C   UNL     1     -10.740  -3.693   2.131  0.00  0.00    +0.000 C 
ENDBRANCH   8  11
ENDBRANCH   4   5
ENDBRANCH   1   3
BRANCH   1  13
ATOM     13  O   UNL     1      -1.398  -2.716   3.024  0.00  0.00    +0.000 OA
BRANCH  13  14
ATOM     14  C   UNL     1      -0.476  -2.960   2.113  0.00  0.00    +0.000 C 
BRANCH  14  15
ATOM     15  C   UNL     1       0.763  -3.546   2.766  0.00  0.00    +0.000 C 
ATOM     16  C   UNL     1       1.410  -2.632   3.801  0.00  0.00    +0.000 C 
ENDBRANCH  14  15
BRANCH  14  17
ATOM     17  C   UNL     1      -0.987  -3.899   1.031  0.00  0.00    +0.000 C 
BRANCH  17  18
ATOM     18  C   UNL     1      -1.684  -3.227  -0.106  0.00  0.00    +0.000 C 
BRANCH  18  20
ATOM     19  C   UNL     1      -3.755  -1.828  -0.120  0.00  0.00    +0.000 C 
ATOM     20  C   UNL     1      -3.183  -3.219   0.052  0.00  0.00    +0.000 C 
ENDBRANCH  18  20
ENDBRANCH  17  18
ENDBRANCH  14  17
ENDBRANCH  13  14
ENDBRANCH   1  13
TORSDOF 9
ENDMDL
MODEL 3
REMARK VINA RESULT:      -6.5      2.196      6.368
REMARK  Name = s3_orig_f12_ligand
REMARK  12 active torsions:
REMARK  status: ('A' for Active; 'I' for Inactive)
REMARK    1  A    between atoms: C_1  and  C_2
REMARK    2  A    between atoms: C_2  and  C_3
REMARK    3  A    between atoms: C_3  and  C_4
REMARK    4  A    between atoms: C_4  and  C_5
REMARK    5  A    between atoms: C_5  and  C_6
REMARK    6  A    between atoms: C_5  and  O_8
REMARK    7  A    between atoms: C_6  and  C_7
REMARK    8  A    between atoms: O_8  and  C_9
REMARK    9  A    between atoms: C_9  and  C_11
REMARK   10  A    between atoms: C_12  and  C_13
REMARK   11  A    between atoms: C_16  and  O_17
REMARK   12  A    between atoms: O_17  and  C_18
REMARK                            x       y       z     vdW  Elec       q    Type
REMARK                         _______ _______ _______ _____ _____    ______ ____
ROOT
ATOM      1  C   UNL     1      -3.801  -2.318   3.197  0.00  0.00    +0.000 C 
ATOM      2  O   UNL     1      -2.894  -2.343   3.988  0.00  0.00    +0.000 OA
ENDROOT
BRANCH   1   3
ATOM      3  C   UNL     1      -5.096  -3.012   3.392  0.00  0.00    +0.000 C 
ATOM      4  C   UNL     1      -6.195  -2.649   2.736  0.00  0.00    +0.000 C 
BRANCH   4   5
ATOM      5  C   UNL     1      -7.539  -3.239   2.961  0.00  0.00    +0.000 A 
ATOM      6  C   UNL     1      -7.739  -4.072   4.050  0.00  0.00    +0.000 A 
ATOM      7  C   UNL     1      -8.963  -4.704   4.239  0.00  0.00    +0.000 A 
ATOM      8  C   UNL     1     -10.020  -4.466   3.384  0.00  0.00    +0.000 A 
ATOM      9  C   UNL     1      -9.832  -3.601   2.339  0.00  0.00    +0.000 A 
ATOM     10  C   UNL     1      -8.597  -2.990   2.126  0.00  0.00    +0.000 A 
BRANCH   8  11
ATOM     11  O   UNL     1     -11.256  -5.057   3.543  0.00  0.00    +0.000 OA
ATOM     12  C   UNL     1     -11.372  -6.093   4.501  0.00  0.00    +0.000 C 
ENDBRANCH   8  11
ENDBRANCH   4   5
ENDBRANCH   1   3
BRANCH   1  13
ATOM     13  O   UNL     1      -3.637  -1.703   2.135  0.00  0.00    +0.000 OA
BRANCH  13  14
ATOM     14  C   UNL     1      -3.444  -1.385   0.869  0.00  0.00    +0.000 C 
BRANCH  14  15
ATOM     15  C   UNL     1      -3.331  -2.641   0.025  0.00  0.00    +0.000 C 
ATOM     16  C   UNL     1      -2.086  -3.473   0.312  0.00  0.00    +0.000 C 
ENDBRANCH  14  15
BRANCH  14  17
ATOM     17  C   UNL     1      -4.557  -0.498   0.336  0.00  0.00    +0.000 C 
BRANCH  17  18
ATOM     18  C   UNL     1      -5.650  -1.221  -0.380  0.00  0.00    +0.000 C 
BRANCH  18  20
ATOM     19  C   UNL     1      -7.927  -1.006  -1.388  0.00  0.00    +0.000 C 
ATOM     20  C   UNL     1      -6.958  -0.471  -0.356  0.00  0.00    +0.000 C 
ENDBRANCH  18  20
ENDBRANCH  17  18
ENDBRANCH  14  17
ENDBRANCH  13  14
ENDBRANCH   1  13
TORSDOF 9
ENDMDL
MODEL 4
REMARK VINA RESULT:      -6.4      1.259      2.644
REMARK  Name = s3_orig_f12_ligand
REMARK  12 active torsions:
REMARK  status: ('A' for Active; 'I' for Inactive)
REMARK    1  A    between atoms: C_1  and  C_2
REMARK    2  A    between atoms: C_2  and  C_3
REMARK    3  A    between atoms: C_3  and  C_4
REMARK    4  A    between atoms: C_4  and  C_5
REMARK    5  A    between atoms: C_5  and  C_6
REMARK    6  A    between atoms: C_5  and  O_8
REMARK    7  A    between atoms: C_6  and  C_7
REMARK    8  A    between atoms: O_8  and  C_9
REMARK    9  A    between atoms: C_9  and  C_11
REMARK   10  A    between atoms: C_12  and  C_13
REMARK   11  A    between atoms: C_16  and  O_17
REMARK   12  A    between atoms: O_17  and  C_18
REMARK                            x       y       z     vdW  Elec       q    Type
REMARK                         _______ _______ _______ _____ _____    ______ ____
ROOT
ATOM      1  C   UNL     1      -7.678  -3.489   2.695  0.00  0.00    +0.000 C 
ATOM      2  O   UNL     1      -8.315  -3.814   3.663  0.00  0.00    +0.000 OA
ENDROOT
BRANCH   1   3
ATOM      3  C   UNL     1      -6.208  -3.627   2.580  0.00  0.00    +0.000 C 
ATOM      4  C   UNL     1      -5.379  -2.642   2.917  0.00  0.00    +0.000 C 
BRANCH   4   5
ATOM      5  C   UNL     1      -3.906  -2.685   2.732  0.00  0.00    +0.000 A 
ATOM      6  C   UNL     1      -3.384  -3.265   1.588  0.00  0.00    +0.000 A 
ATOM      7  C   UNL     1      -2.009  -3.392   1.426  0.00  0.00    +0.000 A 
ATOM      8  C   UNL     1      -1.138  -2.890   2.370  0.00  0.00    +0.000 A 
ATOM      9  C   UNL     1      -1.659  -2.271   3.475  0.00  0.00    +0.000 A 
ATOM     10  C   UNL     1      -3.037  -2.169   3.658  0.00  0.00    +0.000 A 
BRANCH   8  11
ATOM     11  O   UNL     1       0.233  -2.979   2.243  0.00  0.00    +0.000 OA
ATOM     12  C   UNL     1       1.008  -2.928   3.427  0.00  0.00    +0.000 C 
ENDBRANCH   8  11
ENDBRANCH   4   5
ENDBRANCH   1   3
BRANCH   1  13
ATOM     13  O   UNL     1      -8.280  -2.976   1.741  0.00  0.00    +0.000 OA
BRANCH  13  14
ATOM     14  C   UNL     1      -8.596  -2.273   0.670  0.00  0.00    +0.000 C 
BRANCH  14  15
ATOM     15  C   UNL     1      -7.939  -0.907   0.728  0.00  0.00    +0.000 C 
ATOM     16  C   UNL     1      -6.739  -0.754  -0.201  0.00  0.00    +0.000 C 
ENDBRANCH  14  15
BRANCH  14  17
ATOM     17  C   UNL     1      -8.197  -2.990  -0.610  0.00  0.00    +0.000 C 
BRANCH  17  18
ATOM     18  C   UNL     1      -9.278  -3.809  -1.235  0.00  0.00    +0.000 C 
BRANCH  18  20
ATOM     19  C   UNL     1     -11.436  -4.566  -0.227  0.00  0.00    +0.000 C 
ATOM     20  C   UNL     1     -10.656  -3.395  -0.785  0.00  0.00    +0.000 C 
ENDBRANCH  18  20
ENDBRANCH  17  18
ENDBRANCH  14  17
ENDBRANCH  13  14
ENDBRANCH   1  13
TORSDOF 9
ENDMDL
MODEL 5
REMARK VINA RESULT:      -6.4      1.522      3.137
REMARK  Name = s3_orig_f12_ligand
REMARK  12 active torsions:
REMARK  status: ('A' for Active; 'I' for Inactive)
REMARK    1  A    between atoms: C_1  and  C_2
REMARK    2  A    between atoms: C_2  and  C_3
REMARK    3  A    between atoms: C_3  and  C_4
REMARK    4  A    between atoms: C_4  and  C_5
REMARK    5  A    between atoms: C_5  and  C_6
REMARK    6  A    between atoms: C_5  and  O_8
REMARK    7  A    between atoms: C_6  and  C_7
REMARK    8  A    between atoms: O_8  and  C_9
REMARK    9  A    between atoms: C_9  and  C_11
REMARK   10  A    between atoms: C_12  and  C_13
REMARK   11  A    between atoms: C_16  and  O_17
REMARK   12  A    between atoms: O_17  and  C_18
REMARK                            x       y       z     vdW  Elec       q    Type
REMARK                         _______ _______ _______ _____ _____    ______ ____
ROOT
ATOM      1  C   UNL     1      -5.875  -1.393   0.125  0.00  0.00    +0.000 C 
ATOM      2  O   UNL     1      -6.283  -0.476  -0.539  0.00  0.00    +0.000 OA
ENDROOT
BRANCH   1   3
ATOM      3  C   UNL     1      -4.466  -1.545   0.560  0.00  0.00    +0.000 C 
ATOM      4  C   UNL     1      -4.014  -2.672   1.105  0.00  0.00    +0.000 C 
BRANCH   4   5
ATOM      5  C   UNL     1      -2.643  -2.849   1.647  0.00  0.00    +0.000 A 
ATOM      6  C   UNL     1      -2.313  -2.262   2.857  0.00  0.00    +0.000 A 
ATOM      7  C   UNL     1      -1.015  -2.342   3.350  0.00  0.00    +0.000 A 
ATOM      8  C   UNL     1      -0.048  -3.059   2.676  0.00  0.00    +0.000 A 
ATOM      9  C   UNL     1      -0.393  -3.683   1.506  0.00  0.00    +0.000 A 
ATOM     10  C   UNL     1      -1.685  -3.578   0.992  0.00  0.00    +0.000 A 
BRANCH   8  11
ATOM     11  O   UNL     1       1.247  -3.181   3.136  0.00  0.00    +0.000 OA
ATOM     12  C   UNL     1       1.573  -2.546   4.359  0.00  0.00    +0.000 C 
ENDBRANCH   8  11
ENDBRANCH   4   5
ENDBRANCH   1   3
BRANCH   1  13
ATOM     13  O   UNL     1      -6.669  -2.289   0.443  0.00  0.00    +0.000 OA
BRANCH  13  14
ATOM     14  C   UNL     1      -7.623  -2.993   1.022  0.00  0.00    +0.000 C 
BRANCH  14  15
ATOM     15  C   UNL     1      -7.677  -2.679   2.506  0.00  0.00    +0.000 C 
ATOM     16  C   UNL     1      -6.895  -3.656   3.377  0.00  0.00    +0.000 C 
ENDBRANCH  14  15
BRANCH  14  17
ATOM     17  C   UNL     1      -8.979  -2.735   0.385  0.00  0.00    +0.000 C 
BRANCH  17  18
ATOM     18  C   UNL     1      -9.735  -1.582   0.959  0.00  0.00    +0.000 C 
BRANCH  18  20
ATOM     19  C   UNL     1     -10.756   0.536   0.112  0.00  0.00    +0.000 C 
ATOM     20  C   UNL     1      -9.496  -0.297   0.209  0.00  0.00    +0.000 C 
ENDBRANCH  18  20
ENDBRANCH  17  18
ENDBRANCH  14  17
ENDBRANCH  13  14
ENDBRANCH   1  13
TORSDOF 9
ENDMDL
MODEL 6
REMARK VINA RESULT:      -6.3      2.198      7.211
REMARK  Name = s3_orig_f12_ligand
REMARK  12 active torsions:
REMARK  status: ('A' for Active; 'I' for Inactive)
REMARK    1  A    between atoms: C_1  and  C_2
REMARK    2  A    between atoms: C_2  and  C_3
REMARK    3  A    between atoms: C_3  and  C_4
REMARK    4  A    between atoms: C_4  and  C_5
REMARK    5  A    between atoms: C_5  and  C_6
REMARK    6  A    between atoms: C_5  and  O_8
REMARK    7  A    between atoms: C_6  and  C_7
REMARK    8  A    between atoms: O_8  and  C_9
REMARK    9  A    between atoms: C_9  and  C_11
REMARK   10  A    between atoms: C_12  and  C_13
REMARK   11  A    between atoms: C_16  and  O_17
REMARK   12  A    between atoms: O_17  and  C_18
REMARK                            x       y       z     vdW  Elec       q    Type
REMARK                         _______ _______ _______ _____ _____    ______ ____
ROOT
ATOM      1  C   UNL     1      -3.382  -2.576   0.327  0.00  0.00    +0.000 C 
ATOM      2  O   UNL     1      -2.371  -2.902  -0.240  0.00  0.00    +0.000 OA
ENDROOT
BRANCH   1   3
ATOM      3  C   UNL     1      -4.614  -2.123  -0.360  0.00  0.00    +0.000 C 
ATOM      4  C   UNL     1      -5.351  -1.117   0.104  0.00  0.00    +0.000 C 
BRANCH   4   5
ATOM      5  C   UNL     1      -6.643  -0.684  -0.485  0.00  0.00    +0.000 A 
ATOM      6  C   UNL     1      -7.322  -1.541  -1.334  0.00  0.00    +0.000 A 
ATOM      7  C   UNL     1      -8.493  -1.132  -1.964  0.00  0.00    +0.000 A 
ATOM      8  C   UNL     1      -9.033   0.112  -1.708  0.00  0.00    +0.000 A 
ATOM      9  C   UNL     1      -8.386   0.936  -0.826  0.00  0.00    +0.000 A 
ATOM     10  C   UNL     1      -7.195   0.543  -0.217  0.00  0.00    +0.000 A 
BRANCH   8  11
ATOM     11  O   UNL     1     -10.200   0.554  -2.296  0.00  0.00    +0.000 OA
ATOM     12  C   UNL     1     -11.290  -0.348  -2.354  0.00  0.00    +0.000 C 
ENDBRANCH   8  11
ENDBRANCH   4   5
ENDBRANCH   1   3
BRANCH   1  13
ATOM     13  O   UNL     1      -3.390  -2.585   1.566  0.00  0.00    +0.000 OA
BRANCH  13  14
ATOM     14  C   UNL     1      -3.530  -2.930   2.831  0.00  0.00    +0.000 C 
BRANCH  14  15
ATOM     15  C   UNL     1      -2.559  -2.149   3.697  0.00  0.00    +0.000 C 
ATOM     16  C   UNL     1      -1.094  -2.360   3.335  0.00  0.00    +0.000 C 
ENDBRANCH  14  15
BRANCH  14  17
ATOM     17  C   UNL     1      -4.953  -2.716   3.320  0.00  0.00    +0.000 C 
BRANCH  17  18
ATOM     18  C   UNL     1      -5.952  -3.696   2.798  0.00  0.00    +0.000 C 
BRANCH  18  20
ATOM     19  C   UNL     1      -8.175  -2.761   2.143  0.00  0.00    +0.000 C 
ATOM     20  C   UNL     1      -7.357  -3.392   3.249  0.00  0.00    +0.000 C 
ENDBRANCH  18  20
ENDBRANCH  17  18
ENDBRANCH  14  17
ENDBRANCH  13  14
ENDBRANCH   1  13
TORSDOF 9
ENDMDL
MODEL 7
REMARK VINA RESULT:      -6.3      2.834      7.520
REMARK  Name = s3_orig_f12_ligand
REMARK  12 active torsions:
REMARK  status: ('A' for Active; 'I' for Inactive)
REMARK    1  A    between atoms: C_1  and  C_2
REMARK    2  A    between atoms: C_2  and  C_3
REMARK    3  A    between atoms: C_3  and  C_4
REMARK    4  A    between atoms: C_4  and  C_5
REMARK    5  A    between atoms: C_5  and  C_6
REMARK    6  A    between atoms: C_5  and  O_8
REMARK    7  A    between atoms: C_6  and  C_7
REMARK    8  A    between atoms: O_8  and  C_9
REMARK    9  A    between atoms: C_9  and  C_11
REMARK   10  A    between atoms: C_12  and  C_13
REMARK   11  A    between atoms: C_16  and  O_17
REMARK   12  A    between atoms: O_17  and  C_18
REMARK                            x       y       z     vdW  Elec       q    Type
REMARK                         _______ _______ _______ _____ _____    ______ ____
ROOT
ATOM      1  C   UNL     1      -4.355  -1.110   0.646  0.00  0.00    +0.000 C 
ATOM      2  O   UNL     1      -3.734  -0.100   0.857  0.00  0.00    +0.000 OA
ENDROOT
BRANCH   1   3
ATOM      3  C   UNL     1      -5.495  -1.207  -0.295  0.00  0.00    +0.000 C 
ATOM      4  C   UNL     1      -6.513  -0.350  -0.259  0.00  0.00    +0.000 C 
BRANCH   4   5
ATOM      5  C   UNL     1      -7.727  -0.454  -1.107  0.00  0.00    +0.000 A 
ATOM      6  C   UNL     1      -7.951  -1.615  -1.829  0.00  0.00    +0.000 A 
ATOM      7  C   UNL     1      -9.035  -1.709  -2.695  0.00  0.00    +0.000 A 
ATOM      8  C   UNL     1      -9.942  -0.675  -2.805  0.00  0.00    +0.000 A 
ATOM      9  C   UNL     1      -9.745   0.450  -2.049  0.00  0.00    +0.000 A 
ATOM     10  C   UNL     1      -8.642   0.562  -1.204  0.00  0.00    +0.000 A 
BRANCH   8  11
ATOM     11  O   UNL     1     -11.041  -0.732  -3.638  0.00  0.00    +0.000 OA
ATOM     12  C   UNL     1     -11.249  -1.924  -4.372  0.00  0.00    +0.000 C 
ENDBRANCH   8  11
ENDBRANCH   4   5
ENDBRANCH   1   3
BRANCH   1  13
ATOM     13  O   UNL     1      -4.047  -2.131   1.276  0.00  0.00    +0.000 OA
BRANCH  13  14
ATOM     14  C   UNL     1      -3.990  -3.106   2.163  0.00  0.00    +0.000 C 
BRANCH  14  15
ATOM     15  C   UNL     1      -3.633  -2.550   3.530  0.00  0.00    +0.000 C 
ATOM     16  C   UNL     1      -2.177  -2.119   3.664  0.00  0.00    +0.000 C 
ENDBRANCH  14  15
BRANCH  14  17
ATOM     17  C   UNL     1      -5.299  -3.875   2.240  0.00  0.00    +0.000 C 
BRANCH  17  18
ATOM     18  C   UNL     1      -6.259  -3.381   3.272  0.00  0.00    +0.000 C 
BRANCH  18  20
ATOM     19  C   UNL     1      -8.178  -3.012   1.713  0.00  0.00    +0.000 C 
ATOM     20  C   UNL     1      -7.243  -2.381   2.721  0.00  0.00    +0.000 C 
ENDBRANCH  18  20
ENDBRANCH  17  18
ENDBRANCH  14  17
ENDBRANCH  13  14
ENDBRANCH   1  13
TORSDOF 9
ENDMDL
MODEL 8
REMARK VINA RESULT:      -6.2      1.578      3.402
REMARK  Name = s3_orig_f12_ligand
REMARK  12 active torsions:
REMARK  status: ('A' for Active; 'I' for Inactive)
REMARK    1  A    between atoms: C_1  and  C_2
REMARK    2  A    between atoms: C_2  and  C_3
REMARK    3  A    between atoms: C_3  and  C_4
REMARK    4  A    between atoms: C_4  and  C_5
REMARK    5  A    between atoms: C_5  and  C_6
REMARK    6  A    between atoms: C_5  and  O_8
REMARK    7  A    between atoms: C_6  and  C_7
REMARK    8  A    between atoms: O_8  and  C_9
REMARK    9  A    between atoms: C_9  and  C_11
REMARK   10  A    between atoms: C_12  and  C_13
REMARK   11  A    between atoms: C_16  and  O_17
REMARK   12  A    between atoms: O_17  and  C_18
REMARK                            x       y       z     vdW  Elec       q    Type
REMARK                         _______ _______ _______ _____ _____    ______ ____
ROOT
ATOM      1  C   UNL     1      -6.850  -1.314  -0.196  0.00  0.00    +0.000 C 
ATOM      2  O   UNL     1      -7.017  -1.249  -1.386  0.00  0.00    +0.000 OA
ENDROOT
BRANCH   1   3
ATOM      3  C   UNL     1      -5.523  -1.276   0.462  0.00  0.00    +0.000 C 
ATOM      4  C   UNL     1      -4.924  -2.378   0.907  0.00  0.00    +0.000 C 
BRANCH   4   5
ATOM      5  C   UNL     1      -3.644  -2.391   1.660  0.00  0.00    +0.000 A 
ATOM      6  C   UNL     1      -2.543  -3.027   1.112  0.00  0.00    +0.000 A 
ATOM      7  C   UNL     1      -1.356  -3.126   1.829  0.00  0.00    +0.000 A 
ATOM      8  C   UNL     1      -1.232  -2.541   3.072  0.00  0.00    +0.000 A 
ATOM      9  C   UNL     1      -2.307  -1.867   3.587  0.00  0.00    +0.000 A 
ATOM     10  C   UNL     1      -3.510  -1.793   2.886  0.00  0.00    +0.000 A 
BRANCH   8  11
ATOM     11  O   UNL     1      -0.068  -2.599   3.812  0.00  0.00    +0.000 OA
ATOM     12  C   UNL     1       1.117  -2.990   3.143  0.00  0.00    +0.000 C 
ENDBRANCH   8  11
ENDBRANCH   4   5
ENDBRANCH   1   3
BRANCH   1  13
ATOM     13  O   UNL     1      -7.843  -1.455   0.531  0.00  0.00    +0.000 OA
BRANCH  13  14
ATOM     14  C   UNL     1      -8.667  -1.803   1.500  0.00  0.00    +0.000 C 
BRANCH  14  15
ATOM     15  C   UNL     1     -10.100  -1.779   1.004  0.00  0.00    +0.000 C 
ATOM     16  C   UNL     1     -10.821  -3.118   1.118  0.00  0.00    +0.000 C 
ENDBRANCH  14  15
BRANCH  14  17
ATOM     17  C   UNL     1      -8.331  -3.178   2.057  0.00  0.00    +0.000 C 
BRANCH  17  18
ATOM     18  C   UNL     1      -7.509  -3.167   3.303  0.00  0.00    +0.000 C 
BRANCH  18  20
ATOM     19  C   UNL     1      -8.898  -4.622   4.786  0.00  0.00    +0.000 C 
ATOM     20  C   UNL     1      -7.580  -4.469   4.059  0.00  0.00    +0.000 C 
ENDBRANCH  18  20
ENDBRANCH  17  18
ENDBRANCH  14  17
ENDBRANCH  13  14
ENDBRANCH   1  13
TORSDOF 9
ENDMDL
MODEL 9
REMARK VINA RESULT:      -6.1      1.373      2.488
REMARK  Name = s3_orig_f12_ligand
REMARK  12 active torsions:
REMARK  status: ('A' for Active; 'I' for Inactive)
REMARK    1  A    between atoms: C_1  and  C_2
REMARK    2  A    between atoms: C_2  and  C_3
REMARK    3  A    between atoms: C_3  and  C_4
REMARK    4  A    between atoms: C_4  and  C_5
REMARK    5  A    between atoms: C_5  and  C_6
REMARK    6  A    between atoms: C_5  and  O_8
REMARK    7  A    between atoms: C_6  and  C_7
REMARK    8  A    between atoms: O_8  and  C_9
REMARK    9  A    between atoms: C_9  and  C_11
REMARK   10  A    between atoms: C_12  and  C_13
REMARK   11  A    between atoms: C_16  and  O_17
REMARK   12  A    between atoms: O_17  and  C_18
REMARK                            x       y       z     vdW  Elec       q    Type
REMARK                         _______ _______ _______ _____ _____    ______ ____
ROOT
ATOM      1  C   UNL     1      -6.996  -2.830   1.068  0.00  0.00    +0.000 C 
ATOM      2  O   UNL     1      -7.781  -3.246   1.881  0.00  0.00    +0.000 OA
ENDROOT
BRANCH   1   3
ATOM      3  C   UNL     1      -5.527  -2.989   1.172  0.00  0.00    +0.000 C 
ATOM      4  C   UNL     1      -4.870  -2.744   2.303  0.00  0.00    +0.000 C 
BRANCH   4   5
ATOM      5  C   UNL     1      -3.392  -2.790   2.440  0.00  0.00    +0.000 A 
ATOM      6  C   UNL     1      -2.802  -2.285   3.586  0.00  0.00    +0.000 A 
ATOM      7  C   UNL     1      -1.417  -2.240   3.707  0.00  0.00    +0.000 A 
ATOM      8  C   UNL     1      -0.606  -2.754   2.717  0.00  0.00    +0.000 A 
ATOM      9  C   UNL     1      -1.196  -3.302   1.608  0.00  0.00    +0.000 A 
ATOM     10  C   UNL     1      -2.583  -3.319   1.468  0.00  0.00    +0.000 A 
BRANCH   8  11
ATOM     11  O   UNL     1       0.771  -2.747   2.802  0.00  0.00    +0.000 OA
ATOM     12  C   UNL     1       1.350  -2.573   4.081  0.00  0.00    +0.000 C 
ENDBRANCH   8  11
ENDBRANCH   4   5
ENDBRANCH   1   3
BRANCH   1  13
ATOM     13  O   UNL     1      -7.435  -2.199   0.097  0.00  0.00    +0.000 OA
BRANCH  13  14
ATOM     14  C   UNL     1      -7.580  -1.361  -0.911  0.00  0.00    +0.000 C 
BRANCH  14  15
ATOM     15  C   UNL     1      -8.787  -1.747  -1.745  0.00  0.00    +0.000 C 
ATOM     16  C   UNL     1      -9.208  -3.204  -1.590  0.00  0.00    +0.000 C 
ENDBRANCH  14  15
BRANCH  14  17
ATOM     17  C   UNL     1      -7.716   0.076  -0.433  0.00  0.00    +0.000 C 
BRANCH  17  18
ATOM     18  C   UNL     1      -8.954   0.364   0.351  0.00  0.00    +0.000 C 
BRANCH  18  20
ATOM     19  C   UNL     1      -9.275   2.219  -1.292  0.00  0.00    +0.000 C 
ATOM     20  C   UNL     1      -9.465   1.766   0.139  0.00  0.00    +0.000 C 
ENDBRANCH  18  20
ENDBRANCH  17  18
ENDBRANCH  14  17
ENDBRANCH  13  14
ENDBRANCH   1  13
TORSDOF 9
ENDMDL
