REMARK  Name = bgox31_3_ligand
REMARK  5 active torsions:
REMARK  status: ('A' for Active; 'I' for Inactive)
REMARK    1  A    between atoms: C_1  and  O_2
REMARK    2  A    between atoms: O_2  and  C_3
REMARK    3  A    between atoms: C_6  and  C_7
REMARK    4  A    between atoms: C_7  and  C_9
REMARK    5  A    between atoms: C_15  and  O_16
REMARK                            x       y       z     vdW  Elec       q    Type
REMARK                         _______ _______ _______ _____ _____    ______ ____
ROOT
ATOM      1  C   UNL     1      -5.640   2.826   2.111  0.00  0.00    +0.000 A 
ATOM      2  C   UNL     1      -4.416   3.022   1.528  0.00  0.00    +0.000 A 
ATOM      3  C   UNL     1      -3.293   3.251   2.316  0.00  0.00    +0.000 A 
ATOM      4  C   UNL     1      -3.357   3.239   3.683  0.00  0.00    +0.000 A 
ATOM      5  C   UNL     1      -4.616   3.015   4.269  0.00  0.00    +0.000 A 
ATOM      6  C   UNL     1      -5.727   2.829   3.523  0.00  0.00    +0.000 A 
ENDROOT
BRANCH   1   8
ATOM      7  C   UNL     1      -8.046   2.643   1.852  0.00  0.00    +0.000 C 
ATOM      8  O   UNL     1      -6.763   2.594   1.296  0.00  0.00    +0.000 OA
ENDBRANCH   1   8
BRANCH   4   9
ATOM      9  C   UNL     1      -2.156   3.510   4.541  0.00  0.00    +0.000 C 
ATOM     10  O   UNL     1      -2.274   4.212   5.535  0.00  0.00    +0.000 OA
BRANCH   9  11
ATOM     11  C   UNL     1      -0.791   2.963   4.218  0.00  0.00    +0.000 A 
ATOM     12  C   UNL     1       0.308   3.767   4.368  0.00  0.00    +0.000 A 
ATOM     13  C   UNL     1       1.539   3.258   4.040  0.00  0.00    +0.000 A 
ATOM     14  C   UNL     1       1.661   1.949   3.704  0.00  0.00    +0.000 A 
ATOM     15  C   UNL     1       0.549   1.080   3.621  0.00  0.00    +0.000 A 
ATOM     16  C   UNL     1      -0.690   1.649   3.859  0.00  0.00    +0.000 A 
ENDBRANCH   9  11
ENDBRANCH   4   9
BRANCH   5  17
ATOM     17  O   UNL     1      -4.649   3.089   5.659  0.00  0.00    +0.000 OA
ATOM     18  H   UNL     1      -5.500   2.943   6.142  0.00  0.00    +0.000 HD
ENDBRANCH   5  17
TORSDOF 4
