MODEL 1
REMARK VINA RESULT:      -5.3      0.000      0.000
REMARK  Name = bgox31_3_ligand
REMARK  5 active torsions:
REMARK  status: ('A' for Active; 'I' for Inactive)
REMARK    1  A    between atoms: C_1  and  O_2
REMARK    2  A    between atoms: O_2  and  C_3
REMARK    3  A    between atoms: C_6  and  C_7
REMARK    4  A    between atoms: C_7  and  C_9
REMARK    5  A    between atoms: C_15  and  O_16
REMARK                            x       y       z     vdW  Elec       q    Type
REMARK                         _______ _______ _______ _____ _____    ______ ____
ROOT
ATOM      1  C   UNL     1      -4.653  -4.364  -5.615  0.00  0.00    +0.000 A 
ATOM      2  C   UNL     1      -3.574  -4.955  -5.013  0.00  0.00    +0.000 A 
ATOM      3  C   UNL     1      -2.302  -4.413  -5.167  0.00  0.00    +0.000 A 
ATOM      4  C   UNL     1      -2.090  -3.259  -5.872  0.00  0.00    +0.000 A 
ATOM      5  C   UNL     1      -3.210  -2.651  -6.467  0.00  0.00    +0.000 A 
ATOM      6  C   UNL     1      -4.449  -3.181  -6.363  0.00  0.00    +0.000 A 
ENDROOT
BRANCH   1   8
ATOM      7  C   UNL     1      -6.219  -6.176  -6.006  0.00  0.00    +0.000 C 
ATOM      8  O   UNL     1      -5.931  -4.927  -5.445  0.00  0.00    +0.000 OA
ENDBRANCH   1   8
BRANCH   4   9
ATOM      9  C   UNL     1      -0.719  -2.681  -6.064  0.00  0.00    +0.000 C 
ATOM     10  O   UNL     1      -0.365  -2.333  -7.182  0.00  0.00    +0.000 OA
BRANCH   9  11
ATOM     11  C   UNL     1       0.260  -2.525  -4.931  0.00  0.00    +0.000 A 
ATOM     12  C   UNL     1       1.276  -3.433  -4.790  0.00  0.00    +0.000 A 
ATOM     13  C   UNL     1       2.139  -3.289  -3.734  0.00  0.00    +0.000 A 
ATOM     14  C   UNL     1       2.052  -2.195  -2.935  0.00  0.00    +0.000 A 
ATOM     15  C   UNL     1       1.060  -1.204  -3.111  0.00  0.00    +0.000 A 
ATOM     16  C   UNL     1       0.143  -1.430  -4.123  0.00  0.00    +0.000 A 
ENDBRANCH   9  11
ENDBRANCH   4   9
BRANCH   5  17
ATOM     17  O   UNL     1      -2.938  -1.525  -7.239  0.00  0.00    +0.000 OA
ATOM     18  H   UNL     1      -3.029  -0.622  -6.845  0.00  0.00    +0.000 HD
ENDBRANCH   5  17
TORSDOF 4
ENDMDL
MODEL 2
REMARK VINA RESULT:      -4.9      2.586      6.379
REMARK  Name = bgox31_3_ligand
REMARK  5 active torsions:
REMARK  status: ('A' for Active; 'I' for Inactive)
REMARK    1  A    between atoms: C_1  and  O_2
REMARK    2  A    between atoms: O_2  and  C_3
REMARK    3  A    between atoms: C_6  and  C_7
REMARK    4  A    between atoms: C_7  and  C_9
REMARK    5  A    between atoms: C_15  and  O_16
REMARK                            x       y       z     vdW  Elec       q    Type
REMARK                         _______ _______ _______ _____ _____    ______ ____
ROOT
ATOM      1  C   UNL     1       3.589  -3.263  -6.645  0.00  0.00    +0.000 A 
ATOM      2  C   UNL     1       2.606  -2.888  -7.522  0.00  0.00    +0.000 A 
ATOM      3  C   UNL     1       1.356  -2.501  -7.049  0.00  0.00    +0.000 A 
ATOM      4  C   UNL     1       1.081  -2.433  -5.711  0.00  0.00    +0.000 A 
ATOM      5  C   UNL     1       2.106  -2.800  -4.821  0.00  0.00    +0.000 A 
ATOM      6  C   UNL     1       3.315  -3.216  -5.258  0.00  0.00    +0.000 A 
ENDROOT
BRANCH   1   8
ATOM      7  C   UNL     1       5.343  -4.926  -6.864  0.00  0.00    +0.000 C 
ATOM      8  O   UNL     1       4.847  -3.648  -7.143  0.00  0.00    +0.000 OA
ENDBRANCH   1   8
BRANCH   4   9
ATOM      9  C   UNL     1      -0.272  -2.042  -5.192  0.00  0.00    +0.000 C 
ATOM     10  O   UNL     1      -0.368  -1.113  -4.404  0.00  0.00    +0.000 OA
BRANCH   9  11
ATOM     11  C   UNL     1      -1.531  -2.765  -5.592  0.00  0.00    +0.000 A 
ATOM     12  C   UNL     1      -1.864  -3.934  -4.961  0.00  0.00    +0.000 A 
ATOM     13  C   UNL     1      -3.000  -4.592  -5.360  0.00  0.00    +0.000 A 
ATOM     14  C   UNL     1      -3.830  -4.016  -6.266  0.00  0.00    +0.000 A 
ATOM     15  C   UNL     1      -3.546  -2.770  -6.871  0.00  0.00    +0.000 A 
ATOM     16  C   UNL     1      -2.343  -2.181  -6.522  0.00  0.00    +0.000 A 
ENDBRANCH   9  11
ENDBRANCH   4   9
BRANCH   5  17
ATOM     17  O   UNL     1       1.758  -2.791  -3.473  0.00  0.00    +0.000 OA
ATOM     18  H   UNL     1       2.356  -3.210  -2.805  0.00  0.00    +0.000 HD
ENDBRANCH   5  17
TORSDOF 4
ENDMDL
MODEL 3
REMARK VINA RESULT:      -4.8      3.537      7.633
REMARK  Name = bgox31_3_ligand
REMARK  5 active torsions:
REMARK  status: ('A' for Active; 'I' for Inactive)
REMARK    1  A    between atoms: C_1  and  O_2
REMARK    2  A    between atoms: O_2  and  C_3
REMARK    3  A    between atoms: C_6  and  C_7
REMARK    4  A    between atoms: C_7  and  C_9
REMARK    5  A    between atoms: C_15  and  O_16
REMARK                            x       y       z     vdW  Elec       q    Type
REMARK                         _______ _______ _______ _____ _____    ______ ____
ROOT
ATOM      1  C   UNL     1       4.840  -0.213  -3.078  0.00  0.00    +0.000 A 
ATOM      2  C   UNL     1       3.517  -0.032  -2.772  0.00  0.00    +0.000 A 
ATOM      3  C   UNL     1       2.575  -0.986  -3.142  0.00  0.00    +0.000 A 
ATOM      4  C   UNL     1       2.934  -2.148  -3.770  0.00  0.00    +0.000 A 
ATOM      5  C   UNL     1       4.299  -2.331  -4.059  0.00  0.00    +0.000 A 
ATOM      6  C   UNL     1       5.226  -1.400  -3.744  0.00  0.00    +0.000 A 
ENDROOT
BRANCH   1   8
ATOM      7  C   UNL     1       5.404   2.111  -2.670  0.00  0.00    +0.000 C 
ATOM      8  O   UNL     1       5.777   0.763  -2.693  0.00  0.00    +0.000 OA
ENDBRANCH   1   8
BRANCH   4   9
ATOM      9  C   UNL     1       1.922  -3.171  -4.196  0.00  0.00    +0.000 C 
ATOM     10  O   UNL     1       1.958  -4.291  -3.706  0.00  0.00    +0.000 OA
BRANCH   9  11
ATOM     11  C   UNL     1       0.863  -2.882  -5.225  0.00  0.00    +0.000 A 
ATOM     12  C   UNL     1       1.237  -2.476  -6.479  0.00  0.00    +0.000 A 
ATOM     13  C   UNL     1       0.254  -2.190  -7.393  0.00  0.00    +0.000 A 
ATOM     14  C   UNL     1      -1.045  -2.434  -7.087  0.00  0.00    +0.000 A 
ATOM     15  C   UNL     1      -1.447  -2.930  -5.825  0.00  0.00    +0.000 A 
ATOM     16  C   UNL     1      -0.442  -3.112  -4.892  0.00  0.00    +0.000 A 
ENDBRANCH   9  11
ENDBRANCH   4   9
BRANCH   5  17
ATOM     17  O   UNL     1       4.608  -3.489  -4.767  0.00  0.00    +0.000 OA
ATOM     18  H   UNL     1       3.909  -4.169  -4.933  0.00  0.00    +0.000 HD
ENDBRANCH   5  17
TORSDOF 4
ENDMDL
MODEL 4
REMARK VINA RESULT:      -4.7      3.493      7.108
REMARK  Name = bgox31_3_ligand
REMARK  5 active torsions:
REMARK  status: ('A' for Active; 'I' for Inactive)
REMARK    1  A    between atoms: C_1  and  O_2
REMARK    2  A    between atoms: O_2  and  C_3
REMARK    3  A    between atoms: C_6  and  C_7
REMARK    4  A    between atoms: C_7  and  C_9
REMARK    5  A    between atoms: C_15  and  O_16
REMARK                            x       y       z     vdW  Elec       q    Type
REMARK                         _______ _______ _______ _____ _____    ______ ____
ROOT
ATOM      1  C   UNL     1       5.060  -5.072  -3.714  0.00  0.00    +0.000 A 
ATOM      2  C   UNL     1       3.802  -5.534  -3.430  0.00  0.00    +0.000 A 
ATOM      3  C   UNL     1       2.703  -4.687  -3.535  0.00  0.00    +0.000 A 
ATOM      4  C   UNL     1       2.828  -3.395  -3.969  0.00  0.00    +0.000 A 
ATOM      5  C   UNL     1       4.122  -2.940  -4.278  0.00  0.00    +0.000 A 
ATOM      6  C   UNL     1       5.208  -3.733  -4.146  0.00  0.00    +0.000 A 
ENDROOT
BRANCH   1   8
ATOM      7  C   UNL     1       6.408  -6.593  -2.389  0.00  0.00    +0.000 C 
ATOM      8  O   UNL     1       6.157  -5.945  -3.603  0.00  0.00    +0.000 OA
ENDBRANCH   1   8
BRANCH   4   9
ATOM      9  C   UNL     1       1.653  -2.467  -4.062  0.00  0.00    +0.000 C 
ATOM     10  O   UNL     1       1.467  -1.643  -3.178  0.00  0.00    +0.000 OA
BRANCH   9  11
ATOM     11  C   UNL     1       0.669  -2.518  -5.201  0.00  0.00    +0.000 A 
ATOM     12  C   UNL     1      -0.650  -2.776  -4.938  0.00  0.00    +0.000 A 
ATOM     13  C   UNL     1      -1.524  -2.847  -5.994  0.00  0.00    +0.000 A 
ATOM     14  C   UNL     1      -1.099  -2.537  -7.245  0.00  0.00    +0.000 A 
ATOM     15  C   UNL     1       0.242  -2.189  -7.526  0.00  0.00    +0.000 A 
ATOM     16  C   UNL     1       1.120  -2.225  -6.456  0.00  0.00    +0.000 A 
ENDBRANCH   9  11
ENDBRANCH   4   9
BRANCH   5  17
ATOM     17  O   UNL     1       4.212  -1.598  -4.640  0.00  0.00    +0.000 OA
ATOM     18  H   UNL     1       5.051  -1.098  -4.481  0.00  0.00    +0.000 HD
ENDBRANCH   5  17
TORSDOF 4
ENDMDL
MODEL 5
REMARK VINA RESULT:      -4.7      3.605      7.326
REMARK  Name = bgox31_3_ligand
REMARK  5 active torsions:
REMARK  status: ('A' for Active; 'I' for Inactive)
REMARK    1  A    between atoms: C_1  and  O_2
REMARK    2  A    between atoms: O_2  and  C_3
REMARK    3  A    between atoms: C_6  and  C_7
REMARK    4  A    between atoms: C_7  and  C_9
REMARK    5  A    between atoms: C_15  and  O_16
REMARK                            x       y       z     vdW  Elec       q    Type
REMARK                         _______ _______ _______ _____ _____    ______ ____
ROOT
ATOM      1  C   UNL     1       5.547  -4.791  -4.016  0.00  0.00    +0.000 A 
ATOM      2  C   UNL     1       5.545  -3.440  -4.244  0.00  0.00    +0.000 A 
ATOM      3  C   UNL     1       4.349  -2.730  -4.237  0.00  0.00    +0.000 A 
ATOM      4  C   UNL     1       3.153  -3.335  -3.956  0.00  0.00    +0.000 A 
ATOM      5  C   UNL     1       3.173  -4.718  -3.702  0.00  0.00    +0.000 A 
ATOM      6  C   UNL     1       4.317  -5.435  -3.742  0.00  0.00    +0.000 A 
ENDROOT
BRANCH   1   8
ATOM      7  C   UNL     1       6.995  -6.503  -3.088  0.00  0.00    +0.000 C 
ATOM      8  O   UNL     1       6.768  -5.490  -4.026  0.00  0.00    +0.000 OA
ENDBRANCH   1   8
BRANCH   4   9
ATOM      9  C   UNL     1       1.855  -2.582  -3.970  0.00  0.00    +0.000 C 
ATOM     10  O   UNL     1       1.473  -2.024  -2.952  0.00  0.00    +0.000 OA
BRANCH   9  11
ATOM     11  C   UNL     1       0.983  -2.497  -5.195  0.00  0.00    +0.000 A 
ATOM     12  C   UNL     1       1.565  -2.338  -6.425  0.00  0.00    +0.000 A 
ATOM     13  C   UNL     1       0.750  -2.234  -7.524  0.00  0.00    +0.000 A 
ATOM     14  C   UNL     1      -0.588  -2.419  -7.393  0.00  0.00    +0.000 A 
ATOM     15  C   UNL     1      -1.201  -2.665  -6.143  0.00  0.00    +0.000 A 
ATOM     16  C   UNL     1      -0.364  -2.663  -5.041  0.00  0.00    +0.000 A 
ENDBRANCH   9  11
ENDBRANCH   4   9
BRANCH   5  17
ATOM     17  O   UNL     1       1.926  -5.305  -3.498  0.00  0.00    +0.000 OA
ATOM     18  H   UNL     1       1.864  -6.264  -3.262  0.00  0.00    +0.000 HD
ENDBRANCH   5  17
TORSDOF 4
ENDMDL
MODEL 6
REMARK VINA RESULT:      -4.6      1.811      2.547
REMARK  Name = bgox31_3_ligand
REMARK  5 active torsions:
REMARK  status: ('A' for Active; 'I' for Inactive)
REMARK    1  A    between atoms: C_1  and  O_2
REMARK    2  A    between atoms: O_2  and  C_3
REMARK    3  A    between atoms: C_6  and  C_7
REMARK    4  A    between atoms: C_7  and  C_9
REMARK    5  A    between atoms: C_15  and  O_16
REMARK                            x       y       z     vdW  Elec       q    Type
REMARK                         _______ _______ _______ _____ _____    ______ ____
ROOT
ATOM      1  C   UNL     1      -4.437  -4.428  -6.810  0.00  0.00    +0.000 A 
ATOM      2  C   UNL     1      -3.991  -3.340  -7.513  0.00  0.00    +0.000 A 
ATOM      3  C   UNL     1      -2.890  -2.619  -7.065  0.00  0.00    +0.000 A 
ATOM      4  C   UNL     1      -2.189  -2.992  -5.950  0.00  0.00    +0.000 A 
ATOM      5  C   UNL     1      -2.644  -4.123  -5.249  0.00  0.00    +0.000 A 
ATOM      6  C   UNL     1      -3.735  -4.816  -5.644  0.00  0.00    +0.000 A 
ENDROOT
BRANCH   1   8
ATOM      7  C   UNL     1      -6.590  -5.469  -6.402  0.00  0.00    +0.000 C 
ATOM      8  O   UNL     1      -5.551  -5.145  -7.281  0.00  0.00    +0.000 OA
ENDBRANCH   1   8
BRANCH   4   9
ATOM      9  C   UNL     1      -1.015  -2.205  -5.444  0.00  0.00    +0.000 C 
ATOM     10  O   UNL     1      -1.202  -1.273  -4.675  0.00  0.00    +0.000 OA
BRANCH   9  11
ATOM     11  C   UNL     1       0.400  -2.506  -5.861  0.00  0.00    +0.000 A 
ATOM     12  C   UNL     1       0.779  -2.288  -7.159  0.00  0.00    +0.000 A 
ATOM     13  C   UNL     1       2.065  -2.596  -7.525  0.00  0.00    +0.000 A 
ATOM     14  C   UNL     1       2.961  -2.982  -6.582  0.00  0.00    +0.000 A 
ATOM     15  C   UNL     1       2.611  -3.137  -5.221  0.00  0.00    +0.000 A 
ATOM     16  C   UNL     1       1.283  -2.916  -4.903  0.00  0.00    +0.000 A 
ENDBRANCH   9  11
ENDBRANCH   4   9
BRANCH   5  17
ATOM     17  O   UNL     1      -1.950  -4.420  -4.079  0.00  0.00    +0.000 OA
ATOM     18  H   UNL     1      -2.135  -5.262  -3.594  0.00  0.00    +0.000 HD
ENDBRANCH   5  17
TORSDOF 4
ENDMDL
MODEL 7
REMARK VINA RESULT:      -4.5      2.047      3.675
REMARK  Name = bgox31_3_ligand
REMARK  5 active torsions:
REMARK  status: ('A' for Active; 'I' for Inactive)
REMARK    1  A    between atoms: C_1  and  O_2
REMARK    2  A    between atoms: O_2  and  C_3
REMARK    3  A    between atoms: C_6  and  C_7
REMARK    4  A    between atoms: C_7  and  C_9
REMARK    5  A    between atoms: C_15  and  O_16
REMARK                            x       y       z     vdW  Elec       q    Type
REMARK                         _______ _______ _______ _____ _____    ______ ____
ROOT
ATOM      1  C   UNL     1      -1.800  -2.887  -6.682  0.00  0.00    +0.000 A 
ATOM      2  C   UNL     1      -1.618  -3.170  -5.354  0.00  0.00    +0.000 A 
ATOM      3  C   UNL     1      -0.367  -3.008  -4.768  0.00  0.00    +0.000 A 
ATOM      4  C   UNL     1       0.701  -2.519  -5.472  0.00  0.00    +0.000 A 
ATOM      5  C   UNL     1       0.495  -2.213  -6.829  0.00  0.00    +0.000 A 
ATOM      6  C   UNL     1      -0.702  -2.399  -7.429  0.00  0.00    +0.000 A 
ENDROOT
BRANCH   1   8
ATOM      7  C   UNL     1      -4.146  -3.464  -6.455  0.00  0.00    +0.000 C 
ATOM      8  O   UNL     1      -3.074  -3.056  -7.255  0.00  0.00    +0.000 OA
ENDBRANCH   1   8
BRANCH   4   9
ATOM      9  C   UNL     1       2.060  -2.365  -4.855  0.00  0.00    +0.000 C 
ATOM     10  O   UNL     1       2.470  -1.247  -4.577  0.00  0.00    +0.000 OA
BRANCH   9  11
ATOM     11  C   UNL     1       2.960  -3.540  -4.575  0.00  0.00    +0.000 A 
ATOM     12  C   UNL     1       2.701  -4.342  -3.495  0.00  0.00    +0.000 A 
ATOM     13  C   UNL     1       3.550  -5.389  -3.242  0.00  0.00    +0.000 A 
ATOM     14  C   UNL     1       4.538  -5.686  -4.123  0.00  0.00    +0.000 A 
ATOM     15  C   UNL     1       4.773  -4.919  -5.287  0.00  0.00    +0.000 A 
ATOM     16  C   UNL     1       3.963  -3.810  -5.461  0.00  0.00    +0.000 A 
ENDBRANCH   9  11
ENDBRANCH   4   9
BRANCH   5  17
ATOM     17  O   UNL     1       1.626  -1.794  -7.524  0.00  0.00    +0.000 OA
ATOM     18  H   UNL     1       2.086  -0.958  -7.263  0.00  0.00    +0.000 HD
ENDBRANCH   5  17
TORSDOF 4
ENDMDL
MODEL 8
REMARK VINA RESULT:      -4.5      9.738     10.839
REMARK  Name = bgox31_3_ligand
REMARK  5 active torsions:
REMARK  status: ('A' for Active; 'I' for Inactive)
REMARK    1  A    between atoms: C_1  and  O_2
REMARK    2  A    between atoms: O_2  and  C_3
REMARK    3  A    between atoms: C_6  and  C_7
REMARK    4  A    between atoms: C_7  and  C_9
REMARK    5  A    between atoms: C_15  and  O_16
REMARK                            x       y       z     vdW  Elec       q    Type
REMARK                         _______ _______ _______ _____ _____    ______ ____
ROOT
ATOM      1  C   UNL     1      -8.014   1.486   2.494  0.00  0.00    +0.000 A 
ATOM      2  C   UNL     1      -6.716   1.200   2.162  0.00  0.00    +0.000 A 
ATOM      3  C   UNL     1      -6.283  -0.121   2.103  0.00  0.00    +0.000 A 
ATOM      4  C   UNL     1      -7.135  -1.169   2.320  0.00  0.00    +0.000 A 
ATOM      5  C   UNL     1      -8.470  -0.861   2.638  0.00  0.00    +0.000 A 
ATOM      6  C   UNL     1      -8.904   0.414   2.739  0.00  0.00    +0.000 A 
ENDROOT
BRANCH   1   8
ATOM      7  C   UNL     1      -7.479   3.849   2.638  0.00  0.00    +0.000 C 
ATOM      8  O   UNL     1      -8.432   2.828   2.546  0.00  0.00    +0.000 OA
ENDBRANCH   1   8
BRANCH   4   9
ATOM      9  C   UNL     1      -6.671  -2.596   2.283  0.00  0.00    +0.000 C 
ATOM     10  O   UNL     1      -6.912  -3.280   1.299  0.00  0.00    +0.000 OA
BRANCH   9  11
ATOM     11  C   UNL     1      -5.929  -3.235   3.426  0.00  0.00    +0.000 A 
ATOM     12  C   UNL     1      -4.667  -2.801   3.735  0.00  0.00    +0.000 A 
ATOM     13  C   UNL     1      -3.997  -3.417   4.761  0.00  0.00    +0.000 A 
ATOM     14  C   UNL     1      -4.634  -4.340   5.525  0.00  0.00    +0.000 A 
ATOM     15  C   UNL     1      -5.965  -4.745   5.275  0.00  0.00    +0.000 A 
ATOM     16  C   UNL     1      -6.578  -4.179   4.171  0.00  0.00    +0.000 A 
ENDBRANCH   9  11
ENDBRANCH   4   9
BRANCH   5  17
ATOM     17  O   UNL     1      -9.282  -1.955   2.927  0.00  0.00    +0.000 OA
ATOM     18  H   UNL     1      -8.875  -2.819   3.185  0.00  0.00    +0.000 HD
ENDBRANCH   5  17
TORSDOF 4
ENDMDL
MODEL 9
REMARK VINA RESULT:      -4.5      4.078      8.086
REMARK  Name = bgox31_3_ligand
REMARK  5 active torsions:
REMARK  status: ('A' for Active; 'I' for Inactive)
REMARK    1  A    between atoms: C_1  and  O_2
REMARK    2  A    between atoms: O_2  and  C_3
REMARK    3  A    between atoms: C_6  and  C_7
REMARK    4  A    between atoms: C_7  and  C_9
REMARK    5  A    between atoms: C_15  and  O_16
REMARK                            x       y       z     vdW  Elec       q    Type
REMARK                         _______ _______ _______ _____ _____    ______ ____
ROOT
ATOM      1  C   UNL     1      -4.817  -4.691  -6.236  0.00  0.00    +0.000 A 
ATOM      2  C   UNL     1      -5.092  -3.728  -7.171  0.00  0.00    +0.000 A 
ATOM      3  C   UNL     1      -6.405  -3.331  -7.404  0.00  0.00    +0.000 A 
ATOM      4  C   UNL     1      -7.451  -3.842  -6.684  0.00  0.00    +0.000 A 
ATOM      5  C   UNL     1      -7.152  -4.815  -5.712  0.00  0.00    +0.000 A 
ATOM      6  C   UNL     1      -5.889  -5.243  -5.496  0.00  0.00    +0.000 A 
ENDROOT
BRANCH   1   8
ATOM      7  C   UNL     1      -2.741  -4.459  -5.001  0.00  0.00    +0.000 C 
ATOM      8  O   UNL     1      -3.483  -5.076  -6.015  0.00  0.00    +0.000 OA
ENDBRANCH   1   8
BRANCH   4   9
ATOM      9  C   UNL     1      -8.872  -3.439  -6.945  0.00  0.00    +0.000 C 
ATOM     10  O   UNL     1      -9.635  -4.236  -7.472  0.00  0.00    +0.000 OA
BRANCH   9  11
ATOM     11  C   UNL     1      -9.403  -2.074  -6.598  0.00  0.00    +0.000 A 
ATOM     12  C   UNL     1      -9.916  -1.849  -5.348  0.00  0.00    +0.000 A 
ATOM     13  C   UNL     1     -10.421  -0.606  -5.063  0.00  0.00    +0.000 A 
ATOM     14  C   UNL     1     -10.286   0.400  -5.963  0.00  0.00    +0.000 A 
ATOM     15  C   UNL     1      -9.687   0.211  -7.229  0.00  0.00    +0.000 A 
ATOM     16  C   UNL     1      -9.279  -1.078  -7.526  0.00  0.00    +0.000 A 
ENDBRANCH   9  11
ENDBRANCH   4   9
BRANCH   5  17
ATOM     17  O   UNL     1      -8.253  -5.363  -5.059  0.00  0.00    +0.000 OA
ATOM     18  H   UNL     1      -8.370  -6.345  -5.027  0.00  0.00    +0.000 HD
ENDBRANCH   5  17
TORSDOF 4
ENDMDL
