MODEL 1
REMARK VINA RESULT:      -3.4      0.000      0.000
REMARK  Name = bg33_1_ligand
REMARK  12 active torsions:
REMARK  status: ('A' for Active; 'I' for Inactive)
REMARK    1  A    between atoms: C_1  and  C_2
REMARK    2  A    between atoms: C_2  and  C_3
REMARK    3  A    between atoms: C_3  and  C_4
REMARK    4  A    between atoms: C_4  and  C_5
REMARK    5  A    between atoms: C_5  and  C_6
REMARK    6  A    between atoms: C_5  and  O_8
REMARK    7  A    between atoms: C_6  and  C_7
REMARK    8  A    between atoms: O_8  and  C_9
REMARK    9  A    between atoms: C_9  and  C_11
REMARK   10  A    between atoms: C_12  and  C_13
REMARK   11  A    between atoms: C_16  and  O_17
REMARK   12  A    between atoms: O_17  and  C_18
REMARK                            x       y       z     vdW  Elec       q    Type
REMARK                         _______ _______ _______ _____ _____    ______ ____
ROOT
ATOM      1  C   UNL     1       4.547  -2.162  -4.145  0.00  0.00    +0.000 C 
ATOM      2  O   UNL     1       3.876  -2.109  -3.148  0.00  0.00    +0.000 OA
ENDROOT
BRANCH   1   3
ATOM      3  C   UNL     1       4.745  -3.379  -4.822  0.00  0.00    +0.000 C 
ATOM      4  C   UNL     1       4.273  -3.491  -5.982  0.00  0.00    +0.000 C 
BRANCH   4   5
ATOM      5  C   UNL     1       4.251  -4.663  -6.707  0.00  0.00    +0.000 A 
ATOM      6  C   UNL     1       3.387  -4.848  -7.715  0.00  0.00    +0.000 A 
ATOM      7  C   UNL     1       3.351  -5.995  -8.438  0.00  0.00    +0.000 A 
ATOM      8  C   UNL     1       4.267  -6.955  -8.123  0.00  0.00    +0.000 A 
ATOM      9  C   UNL     1       5.145  -6.819  -7.152  0.00  0.00    +0.000 A 
ATOM     10  C   UNL     1       5.122  -5.679  -6.423  0.00  0.00    +0.000 A 
BRANCH   8  11
ATOM     11  O   UNL     1       4.284  -8.095  -8.774  0.00  0.00    +0.000 OA
ATOM     12  C   UNL     1       4.651  -9.181  -7.994  0.00  0.00    +0.000 C 
ENDBRANCH   8  11
ENDBRANCH   4   5
ENDBRANCH   1   3
BRANCH   1  13
ATOM     13  O   UNL     1       5.093  -1.090  -4.611  0.00  0.00    +0.000 OA
BRANCH  13  14
ATOM     14  C   UNL     1       4.396  -0.062  -4.392  0.00  0.00    +0.000 C 
BRANCH  14  15
ATOM     15  C   UNL     1       5.217   1.077  -3.889  0.00  0.00    +0.000 C 
ATOM     16  C   UNL     1       6.607   0.888  -4.053  0.00  0.00    +0.000 C 
ENDBRANCH  14  15
BRANCH  14  17
ATOM     17  C   UNL     1       3.400   0.207  -5.342  0.00  0.00    +0.000 C 
BRANCH  17  18
ATOM     18  C   UNL     1       3.904   0.455  -6.645  0.00  0.00    +0.000 C 
BRANCH  18  20
ATOM     19  C   UNL     1       1.825  -0.795  -6.739  0.00  0.00    +0.000 C 
ATOM     20  C   UNL     1       3.093  -0.419  -7.471  0.00  0.00    +0.000 C 
ENDBRANCH  18  20
ENDBRANCH  17  18
ENDBRANCH  14  17
ENDBRANCH  13  14
ENDBRANCH   1  13
TORSDOF 9
ENDMDL
MODEL 2
REMARK VINA RESULT:      -3.3      1.504      7.851
REMARK  Name = bg33_1_ligand
REMARK  12 active torsions:
REMARK  status: ('A' for Active; 'I' for Inactive)
REMARK    1  A    between atoms: C_1  and  C_2
REMARK    2  A    between atoms: C_2  and  C_3
REMARK    3  A    between atoms: C_3  and  C_4
REMARK    4  A    between atoms: C_4  and  C_5
REMARK    5  A    between atoms: C_5  and  C_6
REMARK    6  A    between atoms: C_5  and  O_8
REMARK    7  A    between atoms: C_6  and  C_7
REMARK    8  A    between atoms: O_8  and  C_9
REMARK    9  A    between atoms: C_9  and  C_11
REMARK   10  A    between atoms: C_12  and  C_13
REMARK   11  A    between atoms: C_16  and  O_17
REMARK   12  A    between atoms: O_17  and  C_18
REMARK                            x       y       z     vdW  Elec       q    Type
REMARK                         _______ _______ _______ _____ _____    ______ ____
ROOT
ATOM      1  C   UNL     1       3.930  -6.586  -7.844  0.00  0.00    +0.000 C 
ATOM      2  O   UNL     1       3.775  -6.905  -8.993  0.00  0.00    +0.000 OA
ENDROOT
BRANCH   1   3
ATOM      3  C   UNL     1       3.826  -5.240  -7.444  0.00  0.00    +0.000 C 
ATOM      4  C   UNL     1       4.415  -4.892  -6.389  0.00  0.00    +0.000 C 
BRANCH   4   5
ATOM      5  C   UNL     1       4.282  -3.658  -5.791  0.00  0.00    +0.000 A 
ATOM      6  C   UNL     1       4.830  -3.395  -4.597  0.00  0.00    +0.000 A 
ATOM      7  C   UNL     1       4.708  -2.187  -3.993  0.00  0.00    +0.000 A 
ATOM      8  C   UNL     1       4.029  -1.219  -4.674  0.00  0.00    +0.000 A 
ATOM      9  C   UNL     1       3.483  -1.421  -5.854  0.00  0.00    +0.000 A 
ATOM     10  C   UNL     1       3.587  -2.652  -6.406  0.00  0.00    +0.000 A 
BRANCH   8  11
ATOM     11  O   UNL     1       3.864  -0.029  -4.147  0.00  0.00    +0.000 OA
ATOM     12  C   UNL     1       5.023   0.729  -4.098  0.00  0.00    +0.000 C 
ENDBRANCH   8  11
ENDBRANCH   4   5
ENDBRANCH   1   3
BRANCH   1  13
ATOM     13  O   UNL     1       4.189  -7.484  -6.955  0.00  0.00    +0.000 OA
BRANCH  13  14
ATOM     14  C   UNL     1       4.954  -8.386  -7.392  0.00  0.00    +0.000 C 
BRANCH  14  15
ATOM     15  C   UNL     1       6.393  -8.018  -7.256  0.00  0.00    +0.000 C 
ATOM     16  C   UNL     1       6.826  -7.917  -5.915  0.00  0.00    +0.000 C 
ENDBRANCH  14  15
BRANCH  14  17
ATOM     17  C   UNL     1       4.574  -9.701  -7.089  0.00  0.00    +0.000 C 
BRANCH  17  18
ATOM     18  C   UNL     1       4.159 -10.453  -8.218  0.00  0.00    +0.000 C 
BRANCH  18  20
ATOM     19  C   UNL     1       4.467 -11.826  -6.241  0.00  0.00    +0.000 C 
ATOM     20  C   UNL     1       4.217 -11.817  -7.732  0.00  0.00    +0.000 C 
ENDBRANCH  18  20
ENDBRANCH  17  18
ENDBRANCH  14  17
ENDBRANCH  13  14
ENDBRANCH   1  13
TORSDOF 9
ENDMDL
MODEL 3
REMARK VINA RESULT:      -3.3      2.686      4.749
REMARK  Name = bg33_1_ligand
REMARK  12 active torsions:
REMARK  status: ('A' for Active; 'I' for Inactive)
REMARK    1  A    between atoms: C_1  and  C_2
REMARK    2  A    between atoms: C_2  and  C_3
REMARK    3  A    between atoms: C_3  and  C_4
REMARK    4  A    between atoms: C_4  and  C_5
REMARK    5  A    between atoms: C_5  and  C_6
REMARK    6  A    between atoms: C_5  and  O_8
REMARK    7  A    between atoms: C_6  and  C_7
REMARK    8  A    between atoms: O_8  and  C_9
REMARK    9  A    between atoms: C_9  and  C_11
REMARK   10  A    between atoms: C_12  and  C_13
REMARK   11  A    between atoms: C_16  and  O_17
REMARK   12  A    between atoms: O_17  and  C_18
REMARK                            x       y       z     vdW  Elec       q    Type
REMARK                         _______ _______ _______ _____ _____    ______ ____
ROOT
ATOM      1  C   UNL     1       4.076  -0.677  -4.873  0.00  0.00    +0.000 C 
ATOM      2  O   UNL     1       3.837   0.336  -4.271  0.00  0.00    +0.000 OA
ENDROOT
BRANCH   1   3
ATOM      3  C   UNL     1       4.399  -1.866  -4.191  0.00  0.00    +0.000 C 
ATOM      4  C   UNL     1       5.611  -2.193  -4.122  0.00  0.00    +0.000 C 
BRANCH   4   5
ATOM      5  C   UNL     1       6.068  -3.395  -3.626  0.00  0.00    +0.000 A 
ATOM      6  C   UNL     1       6.437  -3.530  -2.345  0.00  0.00    +0.000 A 
ATOM      7  C   UNL     1       6.890  -4.705  -1.841  0.00  0.00    +0.000 A 
ATOM      8  C   UNL     1       6.920  -5.773  -2.689  0.00  0.00    +0.000 A 
ATOM      9  C   UNL     1       6.558  -5.698  -3.952  0.00  0.00    +0.000 A 
ATOM     10  C   UNL     1       6.154  -4.499  -4.431  0.00  0.00    +0.000 A 
BRANCH   8  11
ATOM     11  O   UNL     1       7.356  -6.939  -2.272  0.00  0.00    +0.000 OA
ATOM     12  C   UNL     1       6.745  -7.383  -1.110  0.00  0.00    +0.000 C 
ENDBRANCH   8  11
ENDBRANCH   4   5
ENDBRANCH   1   3
BRANCH   1  13
ATOM     13  O   UNL     1       4.032  -0.687  -6.162  0.00  0.00    +0.000 OA
BRANCH  13  14
ATOM     14  C   UNL     1       3.108  -1.421  -6.606  0.00  0.00    +0.000 C 
BRANCH  14  15
ATOM     15  C   UNL     1       1.776  -0.753  -6.536  0.00  0.00    +0.000 C 
ATOM     16  C   UNL     1       0.825  -1.292  -7.430  0.00  0.00    +0.000 C 
ENDBRANCH  14  15
BRANCH  14  17
ATOM     17  C   UNL     1       3.420  -2.158  -7.757  0.00  0.00    +0.000 C 
BRANCH  17  18
ATOM     18  C   UNL     1       4.311  -3.237  -7.522  0.00  0.00    +0.000 C 
BRANCH  18  20
ATOM     19  C   UNL     1       3.979  -5.625  -7.248  0.00  0.00    +0.000 C 
ATOM     20  C   UNL     1       3.445  -4.244  -6.941  0.00  0.00    +0.000 C 
ENDBRANCH  18  20
ENDBRANCH  17  18
ENDBRANCH  14  17
ENDBRANCH  13  14
ENDBRANCH   1  13
TORSDOF 9
ENDMDL
MODEL 4
REMARK VINA RESULT:      -3.2      1.510      7.535
REMARK  Name = bg33_1_ligand
REMARK  12 active torsions:
REMARK  status: ('A' for Active; 'I' for Inactive)
REMARK    1  A    between atoms: C_1  and  C_2
REMARK    2  A    between atoms: C_2  and  C_3
REMARK    3  A    between atoms: C_3  and  C_4
REMARK    4  A    between atoms: C_4  and  C_5
REMARK    5  A    between atoms: C_5  and  C_6
REMARK    6  A    between atoms: C_5  and  O_8
REMARK    7  A    between atoms: C_6  and  C_7
REMARK    8  A    between atoms: O_8  and  C_9
REMARK    9  A    between atoms: C_9  and  C_11
REMARK   10  A    between atoms: C_12  and  C_13
REMARK   11  A    between atoms: C_16  and  O_17
REMARK   12  A    between atoms: O_17  and  C_18
REMARK                            x       y       z     vdW  Elec       q    Type
REMARK                         _______ _______ _______ _____ _____    ______ ____
ROOT
ATOM      1  C   UNL     1       4.232  -7.138  -8.473  0.00  0.00    +0.000 C 
ATOM      2  O   UNL     1       4.236  -6.732  -9.605  0.00  0.00    +0.000 OA
ENDROOT
BRANCH   1   3
ATOM      3  C   UNL     1       4.055  -6.259  -7.388  0.00  0.00    +0.000 C 
ATOM      4  C   UNL     1       4.065  -5.024  -7.624  0.00  0.00    +0.000 C 
BRANCH   4   5
ATOM      5  C   UNL     1       4.058  -4.044  -6.655  0.00  0.00    +0.000 A 
ATOM      6  C   UNL     1       4.704  -4.204  -5.492  0.00  0.00    +0.000 A 
ATOM      7  C   UNL     1       4.707  -3.251  -4.527  0.00  0.00    +0.000 A 
ATOM      8  C   UNL     1       4.050  -2.088  -4.802  0.00  0.00    +0.000 A 
ATOM      9  C   UNL     1       3.411  -1.874  -5.933  0.00  0.00    +0.000 A 
ATOM     10  C   UNL     1       3.392  -2.865  -6.854  0.00  0.00    +0.000 A 
BRANCH   8  11
ATOM     11  O   UNL     1       4.003  -1.125  -3.911  0.00  0.00    +0.000 OA
ATOM     12  C   UNL     1       4.227   0.138  -4.437  0.00  0.00    +0.000 C 
ENDBRANCH   8  11
ENDBRANCH   4   5
ENDBRANCH   1   3
BRANCH   1  13
ATOM     13  O   UNL     1       4.385  -8.398  -8.239  0.00  0.00    +0.000 OA
BRANCH  13  14
ATOM     14  C   UNL     1       5.031  -8.614  -7.179  0.00  0.00    +0.000 C 
BRANCH  14  15
ATOM     15  C   UNL     1       4.609  -9.879  -6.511  0.00  0.00    +0.000 C 
ATOM     16  C   UNL     1       4.173 -10.876  -7.412  0.00  0.00    +0.000 C 
ENDBRANCH  14  15
BRANCH  14  17
ATOM     17  C   UNL     1       6.401  -8.318  -7.234  0.00  0.00    +0.000 C 
BRANCH  17  18
ATOM     18  C   UNL     1       7.027  -8.266  -5.962  0.00  0.00    +0.000 C 
BRANCH  18  20
ATOM     19  C   UNL     1       7.818  -6.217  -6.994  0.00  0.00    +0.000 C 
ATOM     20  C   UNL     1       7.215  -6.843  -5.758  0.00  0.00    +0.000 C 
ENDBRANCH  18  20
ENDBRANCH  17  18
ENDBRANCH  14  17
ENDBRANCH  13  14
ENDBRANCH   1  13
TORSDOF 9
ENDMDL
MODEL 5
REMARK VINA RESULT:      -3.2      1.309      2.646
REMARK  Name = bg33_1_ligand
REMARK  12 active torsions:
REMARK  status: ('A' for Active; 'I' for Inactive)
REMARK    1  A    between atoms: C_1  and  C_2
REMARK    2  A    between atoms: C_2  and  C_3
REMARK    3  A    between atoms: C_3  and  C_4
REMARK    4  A    between atoms: C_4  and  C_5
REMARK    5  A    between atoms: C_5  and  C_6
REMARK    6  A    between atoms: C_5  and  O_8
REMARK    7  A    between atoms: C_6  and  C_7
REMARK    8  A    between atoms: O_8  and  C_9
REMARK    9  A    between atoms: C_9  and  C_11
REMARK   10  A    between atoms: C_12  and  C_13
REMARK   11  A    between atoms: C_16  and  O_17
REMARK   12  A    between atoms: O_17  and  C_18
REMARK                            x       y       z     vdW  Elec       q    Type
REMARK                         _______ _______ _______ _____ _____    ______ ____
ROOT
ATOM      1  C   UNL     1       4.040  -0.613  -4.642  0.00  0.00    +0.000 C 
ATOM      2  O   UNL     1       4.946  -0.490  -3.862  0.00  0.00    +0.000 OA
ENDROOT
BRANCH   1   3
ATOM      3  C   UNL     1       3.730  -1.867  -5.201  0.00  0.00    +0.000 C 
ATOM      4  C   UNL     1       4.666  -2.694  -5.348  0.00  0.00    +0.000 C 
BRANCH   4   5
ATOM      5  C   UNL     1       4.551  -3.893  -6.015  0.00  0.00    +0.000 A 
ATOM      6  C   UNL     1       5.380  -4.917  -5.765  0.00  0.00    +0.000 A 
ATOM      7  C   UNL     1       5.282  -6.104  -6.413  0.00  0.00    +0.000 A 
ATOM      8  C   UNL     1       4.268  -6.236  -7.317  0.00  0.00    +0.000 A 
ATOM      9  C   UNL     1       3.420  -5.267  -7.591  0.00  0.00    +0.000 A 
ATOM     10  C   UNL     1       3.576  -4.082  -6.957  0.00  0.00    +0.000 A 
BRANCH   8  11
ATOM     11  O   UNL     1       4.119  -7.353  -7.989  0.00  0.00    +0.000 OA
ATOM     12  C   UNL     1       4.736  -8.447  -7.402  0.00  0.00    +0.000 C 
ENDBRANCH   8  11
ENDBRANCH   4   5
ENDBRANCH   1   3
BRANCH   1  13
ATOM     13  O   UNL     1       3.331   0.412  -4.973  0.00  0.00    +0.000 OA
BRANCH  13  14
ATOM     14  C   UNL     1       3.287   0.584  -6.222  0.00  0.00    +0.000 C 
BRANCH  14  15
ATOM     15  C   UNL     1       1.900   0.836  -6.707  0.00  0.00    +0.000 C 
ATOM     16  C   UNL     1       1.314  -0.278  -7.348  0.00  0.00    +0.000 C 
ENDBRANCH  14  15
BRANCH  14  17
ATOM     17  C   UNL     1       4.329   1.350  -6.764  0.00  0.00    +0.000 C 
BRANCH  17  18
ATOM     18  C   UNL     1       4.614   1.051  -8.121  0.00  0.00    +0.000 C 
BRANCH  18  20
ATOM     19  C   UNL     1       4.904  -1.209  -8.955  0.00  0.00    +0.000 C 
ATOM     20  C   UNL     1       5.429  -0.144  -8.020  0.00  0.00    +0.000 C 
ENDBRANCH  18  20
ENDBRANCH  17  18
ENDBRANCH  14  17
ENDBRANCH  13  14
ENDBRANCH   1  13
TORSDOF 9
ENDMDL
MODEL 6
REMARK VINA RESULT:      -3.1      2.409      5.926
REMARK  Name = bg33_1_ligand
REMARK  12 active torsions:
REMARK  status: ('A' for Active; 'I' for Inactive)
REMARK    1  A    between atoms: C_1  and  C_2
REMARK    2  A    between atoms: C_2  and  C_3
REMARK    3  A    between atoms: C_3  and  C_4
REMARK    4  A    between atoms: C_4  and  C_5
REMARK    5  A    between atoms: C_5  and  C_6
REMARK    6  A    between atoms: C_5  and  O_8
REMARK    7  A    between atoms: C_6  and  C_7
REMARK    8  A    between atoms: O_8  and  C_9
REMARK    9  A    between atoms: C_9  and  C_11
REMARK   10  A    between atoms: C_12  and  C_13
REMARK   11  A    between atoms: C_16  and  O_17
REMARK   12  A    between atoms: O_17  and  C_18
REMARK                            x       y       z     vdW  Elec       q    Type
REMARK                         _______ _______ _______ _____ _____    ______ ____
ROOT
ATOM      1  C   UNL     1       5.657  -2.189  -4.097  0.00  0.00    +0.000 C 
ATOM      2  O   UNL     1       6.645  -1.802  -3.530  0.00  0.00    +0.000 OA
ENDROOT
BRANCH   1   3
ATOM      3  C   UNL     1       4.912  -1.328  -4.924  0.00  0.00    +0.000 C 
ATOM      4  C   UNL     1       3.686  -1.570  -5.072  0.00  0.00    +0.000 C 
BRANCH   4   5
ATOM      5  C   UNL     1       2.864  -0.915  -5.963  0.00  0.00    +0.000 A 
ATOM      6  C   UNL     1       2.140  -1.585  -6.870  0.00  0.00    +0.000 A 
ATOM      7  C   UNL     1       1.326  -0.958  -7.756  0.00  0.00    +0.000 A 
ATOM      8  C   UNL     1       1.240   0.401  -7.663  0.00  0.00    +0.000 A 
ATOM      9  C   UNL     1       1.919   1.105  -6.784  0.00  0.00    +0.000 A 
ATOM     10  C   UNL     1       2.755   0.449  -5.946  0.00  0.00    +0.000 A 
BRANCH   8  11
ATOM     11  O   UNL     1       0.480   1.075  -8.494  0.00  0.00    +0.000 OA
ATOM     12  C   UNL     1       1.183   1.731  -9.492  0.00  0.00    +0.000 C 
ENDBRANCH   8  11
ENDBRANCH   4   5
ENDBRANCH   1   3
BRANCH   1  13
ATOM     13  O   UNL     1       5.271  -3.412  -3.956  0.00  0.00    +0.000 OA
BRANCH  13  14
ATOM     14  C   UNL     1       6.135  -4.239  -4.355  0.00  0.00    +0.000 C 
BRANCH  14  15
ATOM     15  C   UNL     1       6.526  -5.203  -3.288  0.00  0.00    +0.000 C 
ATOM     16  C   UNL     1       7.915  -5.451  -3.230  0.00  0.00    +0.000 C 
ENDBRANCH  14  15
BRANCH  14  17
ATOM     17  C   UNL     1       5.948  -4.728  -5.656  0.00  0.00    +0.000 C 
BRANCH  17  18
ATOM     18  C   UNL     1       4.600  -5.055  -5.956  0.00  0.00    +0.000 C 
BRANCH  18  20
ATOM     19  C   UNL     1       3.171  -5.060  -7.918  0.00  0.00    +0.000 C 
ATOM     20  C   UNL     1       4.429  -4.507  -7.288  0.00  0.00    +0.000 C 
ENDBRANCH  18  20
ENDBRANCH  17  18
ENDBRANCH  14  17
ENDBRANCH  13  14
ENDBRANCH   1  13
TORSDOF 9
ENDMDL
MODEL 7
REMARK VINA RESULT:      -3.1      2.062      3.340
REMARK  Name = bg33_1_ligand
REMARK  12 active torsions:
REMARK  status: ('A' for Active; 'I' for Inactive)
REMARK    1  A    between atoms: C_1  and  C_2
REMARK    2  A    between atoms: C_2  and  C_3
REMARK    3  A    between atoms: C_3  and  C_4
REMARK    4  A    between atoms: C_4  and  C_5
REMARK    5  A    between atoms: C_5  and  C_6
REMARK    6  A    between atoms: C_5  and  O_8
REMARK    7  A    between atoms: C_6  and  C_7
REMARK    8  A    between atoms: O_8  and  C_9
REMARK    9  A    between atoms: C_9  and  C_11
REMARK   10  A    between atoms: C_12  and  C_13
REMARK   11  A    between atoms: C_16  and  O_17
REMARK   12  A    between atoms: O_17  and  C_18
REMARK                            x       y       z     vdW  Elec       q    Type
REMARK                         _______ _______ _______ _____ _____    ______ ____
ROOT
ATOM      1  C   UNL     1       1.632  -1.745  -7.649  0.00  0.00    +0.000 C 
ATOM      2  O   UNL     1       0.825  -1.811  -8.537  0.00  0.00    +0.000 OA
ENDROOT
BRANCH   1   3
ATOM      3  C   UNL     1       2.689  -2.670  -7.559  0.00  0.00    +0.000 C 
ATOM      4  C   UNL     1       2.443  -3.873  -7.833  0.00  0.00    +0.000 C 
BRANCH   4   5
ATOM      5  C   UNL     1       3.328  -4.913  -7.645  0.00  0.00    +0.000 A 
ATOM      6  C   UNL     1       3.396  -5.939  -8.504  0.00  0.00    +0.000 A 
ATOM      7  C   UNL     1       4.259  -6.971  -8.334  0.00  0.00    +0.000 A 
ATOM      8  C   UNL     1       5.097  -6.908  -7.259  0.00  0.00    +0.000 A 
ATOM      9  C   UNL     1       5.080  -5.918  -6.393  0.00  0.00    +0.000 A 
ATOM     10  C   UNL     1       4.175  -4.928  -6.570  0.00  0.00    +0.000 A 
BRANCH   8  11
ATOM     11  O   UNL     1       5.952  -7.876  -7.027  0.00  0.00    +0.000 OA
ATOM     12  C   UNL     1       6.732  -8.212  -8.123  0.00  0.00    +0.000 C 
ENDBRANCH   8  11
ENDBRANCH   4   5
ENDBRANCH   1   3
BRANCH   1  13
ATOM     13  O   UNL     1       1.541  -0.811  -6.763  0.00  0.00    +0.000 OA
BRANCH  13  14
ATOM     14  C   UNL     1       2.571  -0.086  -6.721  0.00  0.00    +0.000 C 
BRANCH  14  15
ATOM     15  C   UNL     1       2.515   1.029  -7.710  0.00  0.00    +0.000 C 
ATOM     16  C   UNL     1       1.441   1.921  -7.496  0.00  0.00    +0.000 C 
ENDBRANCH  14  15
BRANCH  14  17
ATOM     17  C   UNL     1       3.065   0.189  -5.438  0.00  0.00    +0.000 C 
BRANCH  17  18
ATOM     18  C   UNL     1       4.301  -0.446  -5.151  0.00  0.00    +0.000 C 
BRANCH  18  20
ATOM     19  C   UNL     1       5.107  -2.404  -3.966  0.00  0.00    +0.000 C 
ATOM     20  C   UNL     1       3.895  -1.589  -4.357  0.00  0.00    +0.000 C 
ENDBRANCH  18  20
ENDBRANCH  17  18
ENDBRANCH  14  17
ENDBRANCH  13  14
ENDBRANCH   1  13
TORSDOF 9
ENDMDL
MODEL 8
REMARK VINA RESULT:      -3.1      1.475      6.978
REMARK  Name = bg33_1_ligand
REMARK  12 active torsions:
REMARK  status: ('A' for Active; 'I' for Inactive)
REMARK    1  A    between atoms: C_1  and  C_2
REMARK    2  A    between atoms: C_2  and  C_3
REMARK    3  A    between atoms: C_3  and  C_4
REMARK    4  A    between atoms: C_4  and  C_5
REMARK    5  A    between atoms: C_5  and  C_6
REMARK    6  A    between atoms: C_5  and  O_8
REMARK    7  A    between atoms: C_6  and  C_7
REMARK    8  A    between atoms: O_8  and  C_9
REMARK    9  A    between atoms: C_9  and  C_11
REMARK   10  A    between atoms: C_12  and  C_13
REMARK   11  A    between atoms: C_16  and  O_17
REMARK   12  A    between atoms: O_17  and  C_18
REMARK                            x       y       z     vdW  Elec       q    Type
REMARK                         _______ _______ _______ _____ _____    ______ ____
ROOT
ATOM      1  C   UNL     1       5.932  -6.956  -6.594  0.00  0.00    +0.000 C 
ATOM      2  O   UNL     1       6.961  -7.578  -6.566  0.00  0.00    +0.000 OA
ENDROOT
BRANCH   1   3
ATOM      3  C   UNL     1       5.846  -5.671  -6.025  0.00  0.00    +0.000 C 
ATOM      4  C   UNL     1       4.706  -5.153  -5.911  0.00  0.00    +0.000 C 
BRANCH   4   5
ATOM      5  C   UNL     1       4.475  -3.853  -5.519  0.00  0.00    +0.000 A 
ATOM      6  C   UNL     1       3.778  -3.003  -6.287  0.00  0.00    +0.000 A 
ATOM      7  C   UNL     1       3.542  -1.719  -5.918  0.00  0.00    +0.000 A 
ATOM      8  C   UNL     1       4.014  -1.327  -4.700  0.00  0.00    +0.000 A 
ATOM      9  C   UNL     1       4.692  -2.125  -3.902  0.00  0.00    +0.000 A 
ATOM     10  C   UNL     1       4.947  -3.386  -4.323  0.00  0.00    +0.000 A 
BRANCH   8  11
ATOM     11  O   UNL     1       3.831  -0.097  -4.282  0.00  0.00    +0.000 OA
ATOM     12  C   UNL     1       4.834   0.780  -4.664  0.00  0.00    +0.000 C 
ENDBRANCH   8  11
ENDBRANCH   4   5
ENDBRANCH   1   3
BRANCH   1  13
ATOM     13  O   UNL     1       4.888  -7.463  -7.156  0.00  0.00    +0.000 OA
BRANCH  13  14
ATOM     14  C   UNL     1       5.105  -7.813  -8.348  0.00  0.00    +0.000 C 
BRANCH  14  15
ATOM     15  C   UNL     1       4.525  -9.151  -8.656  0.00  0.00    +0.000 C 
ATOM     16  C   UNL     1       4.544 -10.042  -7.560  0.00  0.00    +0.000 C 
ENDBRANCH  14  15
BRANCH  14  17
ATOM     17  C   UNL     1       4.981  -6.798  -9.308  0.00  0.00    +0.000 C 
BRANCH  17  18
ATOM     18  C   UNL     1       3.645  -6.368  -9.517  0.00  0.00    +0.000 C 
BRANCH  18  20
ATOM     19  C   UNL     1       5.222  -4.525  -9.594  0.00  0.00    +0.000 C 
ATOM     20  C   UNL     1       3.767  -4.924  -9.491  0.00  0.00    +0.000 C 
ENDBRANCH  18  20
ENDBRANCH  17  18
ENDBRANCH  14  17
ENDBRANCH  13  14
ENDBRANCH   1  13
TORSDOF 9
ENDMDL
MODEL 9
REMARK VINA RESULT:      -3.1      2.177      4.306
REMARK  Name = bg33_1_ligand
REMARK  12 active torsions:
REMARK  status: ('A' for Active; 'I' for Inactive)
REMARK    1  A    between atoms: C_1  and  C_2
REMARK    2  A    between atoms: C_2  and  C_3
REMARK    3  A    between atoms: C_3  and  C_4
REMARK    4  A    between atoms: C_4  and  C_5
REMARK    5  A    between atoms: C_5  and  C_6
REMARK    6  A    between atoms: C_5  and  O_8
REMARK    7  A    between atoms: C_6  and  C_7
REMARK    8  A    between atoms: O_8  and  C_9
REMARK    9  A    between atoms: C_9  and  C_11
REMARK   10  A    between atoms: C_12  and  C_13
REMARK   11  A    between atoms: C_16  and  O_17
REMARK   12  A    between atoms: O_17  and  C_18
REMARK                            x       y       z     vdW  Elec       q    Type
REMARK                         _______ _______ _______ _____ _____    ______ ____
ROOT
ATOM      1  C   UNL     1       4.932  -5.656  -6.344  0.00  0.00    +0.000 C 
ATOM      2  O   UNL     1       6.101  -5.428  -6.508  0.00  0.00    +0.000 OA
ENDROOT
BRANCH   1   3
ATOM      3  C   UNL     1       4.313  -6.755  -6.969  0.00  0.00    +0.000 C 
ATOM      4  C   UNL     1       5.035  -7.737  -7.283  0.00  0.00    +0.000 C 
BRANCH   4   5
ATOM      5  C   UNL     1       4.607  -8.811  -8.032  0.00  0.00    +0.000 A 
ATOM      6  C   UNL     1       4.442  -8.720  -9.359  0.00  0.00    +0.000 A 
ATOM      7  C   UNL     1       4.022  -9.766 -10.111  0.00  0.00    +0.000 A 
ATOM      8  C   UNL     1       3.805 -10.948  -9.465  0.00  0.00    +0.000 A 
ATOM      9  C   UNL     1       3.964 -11.095  -8.167  0.00  0.00    +0.000 A 
ATOM     10  C   UNL     1       4.342 -10.017  -7.442  0.00  0.00    +0.000 A 
BRANCH   8  11
ATOM     11  O   UNL     1       3.388 -12.001 -10.128  0.00  0.00    +0.000 OA
ATOM     12  C   UNL     1       3.092 -13.090  -9.323  0.00  0.00    +0.000 C 
ENDBRANCH   8  11
ENDBRANCH   4   5
ENDBRANCH   1   3
BRANCH   1  13
ATOM     13  O   UNL     1       4.227  -4.892  -5.580  0.00  0.00    +0.000 OA
BRANCH  13  14
ATOM     14  C   UNL     1       4.470  -3.669  -5.768  0.00  0.00    +0.000 C 
BRANCH  14  15
ATOM     15  C   UNL     1       3.466  -3.028  -6.665  0.00  0.00    +0.000 C 
ATOM     16  C   UNL     1       4.032  -2.438  -7.817  0.00  0.00    +0.000 C 
ENDBRANCH  14  15
BRANCH  14  17
ATOM     17  C   UNL     1       4.900  -2.958  -4.639  0.00  0.00    +0.000 C 
BRANCH  17  18
ATOM     18  C   UNL     1       3.952  -2.019  -4.158  0.00  0.00    +0.000 C 
BRANCH  18  20
ATOM     19  C   UNL     1       3.914   0.289  -4.910  0.00  0.00    +0.000 C 
ATOM     20  C   UNL     1       4.698  -0.775  -4.175  0.00  0.00    +0.000 C 
ENDBRANCH  18  20
ENDBRANCH  17  18
ENDBRANCH  14  17
ENDBRANCH  13  14
ENDBRANCH   1  13
TORSDOF 9
ENDMDL
