MODEL 1
REMARK VINA RESULT:      -4.1      0.000      0.000
REMARK  Name = s3_esm2_f4_ligand
REMARK  12 active torsions:
REMARK  status: ('A' for Active; 'I' for Inactive)
REMARK    1  A    between atoms: C_1  and  C_2
REMARK    2  A    between atoms: C_2  and  C_3
REMARK    3  A    between atoms: C_3  and  C_4
REMARK    4  A    between atoms: C_4  and  C_5
REMARK    5  A    between atoms: C_5  and  C_6
REMARK    6  A    between atoms: C_5  and  O_8
REMARK    7  A    between atoms: C_6  and  C_7
REMARK    8  A    between atoms: O_8  and  C_9
REMARK    9  A    between atoms: C_9  and  C_11
REMARK   10  A    between atoms: C_12  and  C_13
REMARK   11  A    between atoms: C_16  and  O_17
REMARK   12  A    between atoms: O_17  and  C_18
REMARK                            x       y       z     vdW  Elec       q    Type
REMARK                         _______ _______ _______ _____ _____    ______ ____
ROOT
ATOM      1  C   UNL     1      -7.689  -0.088   4.201  0.00  0.00    +0.000 C 
ATOM      2  O   UNL     1      -8.488   0.272   3.380  0.00  0.00    +0.000 OA
ENDROOT
BRANCH   1   3
ATOM      3  C   UNL     1      -6.931   0.840   5.036  0.00  0.00    +0.000 C 
ATOM      4  C   UNL     1      -7.469   1.366   6.130  0.00  0.00    +0.000 C 
BRANCH   4   5
ATOM      5  C   UNL     1      -6.695   2.142   7.124  0.00  0.00    +0.000 A 
ATOM      6  C   UNL     1      -5.462   2.679   6.812  0.00  0.00    +0.000 A 
ATOM      7  C   UNL     1      -4.746   3.370   7.772  0.00  0.00    +0.000 A 
ATOM      8  C   UNL     1      -5.240   3.529   9.032  0.00  0.00    +0.000 A 
ATOM      9  C   UNL     1      -6.475   3.000   9.345  0.00  0.00    +0.000 A 
ATOM     10  C   UNL     1      -7.193   2.311   8.388  0.00  0.00    +0.000 A 
BRANCH   8  11
ATOM     11  O   UNL     1      -4.507   4.201   9.946  0.00  0.00    +0.000 OA
ATOM     12  C   UNL     1      -3.206   4.655   9.612  0.00  0.00    +0.000 C 
ENDBRANCH   8  11
ENDBRANCH   4   5
ENDBRANCH   1   3
BRANCH   1  13
ATOM     13  O   UNL     1      -7.406  -1.401   4.399  0.00  0.00    +0.000 OA
BRANCH  13  14
ATOM     14  C   UNL     1      -6.621  -1.776   5.516  0.00  0.00    +0.000 C 
BRANCH  14  15
ATOM     15  C   UNL     1      -7.495  -2.388   6.585  0.00  0.00    +0.000 C 
ATOM     16  C   UNL     1      -7.270  -1.839   7.963  0.00  0.00    +0.000 C 
ENDBRANCH  14  15
BRANCH  14  17
ATOM     17  C   UNL     1      -5.573  -2.789   5.075  0.00  0.00    +0.000 C 
BRANCH  17  18
ATOM     18  C   UNL     1      -4.214  -2.449   5.617  0.00  0.00    +0.000 C 
BRANCH  18  20
ATOM     19  C   UNL     1      -3.675  -0.697   7.315  0.00  0.00    +0.000 C 
ATOM     20  C   UNL     1      -4.086  -0.967   5.864  0.00  0.00    +0.000 C 
ENDBRANCH  18  20
ENDBRANCH  17  18
ENDBRANCH  14  17
ENDBRANCH  13  14
ENDBRANCH   1  13
TORSDOF 9
ENDMDL
MODEL 2
REMARK VINA RESULT:      -4.0      2.598      6.948
REMARK  Name = s3_esm2_f4_ligand
REMARK  12 active torsions:
REMARK  status: ('A' for Active; 'I' for Inactive)
REMARK    1  A    between atoms: C_1  and  C_2
REMARK    2  A    between atoms: C_2  and  C_3
REMARK    3  A    between atoms: C_3  and  C_4
REMARK    4  A    between atoms: C_4  and  C_5
REMARK    5  A    between atoms: C_5  and  C_6
REMARK    6  A    between atoms: C_5  and  O_8
REMARK    7  A    between atoms: C_6  and  C_7
REMARK    8  A    between atoms: O_8  and  C_9
REMARK    9  A    between atoms: C_9  and  C_11
REMARK   10  A    between atoms: C_12  and  C_13
REMARK   11  A    between atoms: C_16  and  O_17
REMARK   12  A    between atoms: O_17  and  C_18
REMARK                            x       y       z     vdW  Elec       q    Type
REMARK                         _______ _______ _______ _____ _____    ______ ____
ROOT
ATOM      1  C   UNL     1      -3.604   0.606   8.410  0.00  0.00    +0.000 C 
ATOM      2  O   UNL     1      -2.724   0.787   9.207  0.00  0.00    +0.000 OA
ENDROOT
BRANCH   1   3
ATOM      3  C   UNL     1      -3.962  -0.717   7.905  0.00  0.00    +0.000 C 
ATOM      4  C   UNL     1      -3.427  -1.187   6.785  0.00  0.00    +0.000 C 
BRANCH   4   5
ATOM      5  C   UNL     1      -3.584  -2.586   6.333  0.00  0.00    +0.000 A 
ATOM      6  C   UNL     1      -4.245  -2.891   5.160  0.00  0.00    +0.000 A 
ATOM      7  C   UNL     1      -4.407  -4.211   4.781  0.00  0.00    +0.000 A 
ATOM      8  C   UNL     1      -3.921  -5.224   5.552  0.00  0.00    +0.000 A 
ATOM      9  C   UNL     1      -3.253  -4.922   6.721  0.00  0.00    +0.000 A 
ATOM     10  C   UNL     1      -3.090  -3.606   7.101  0.00  0.00    +0.000 A 
BRANCH   8  11
ATOM     11  O   UNL     1      -4.108  -6.501   5.153  0.00  0.00    +0.000 OA
ATOM     12  C   UNL     1      -3.758  -6.889   3.835  0.00  0.00    +0.000 C 
ENDBRANCH   8  11
ENDBRANCH   4   5
ENDBRANCH   1   3
BRANCH   1  13
ATOM     13  O   UNL     1      -4.325   1.633   7.892  0.00  0.00    +0.000 OA
BRANCH  13  14
ATOM     14  C   UNL     1      -5.698   1.437   7.607  0.00  0.00    +0.000 C 
BRANCH  14  15
ATOM     15  C   UNL     1      -6.548   2.196   8.599  0.00  0.00    +0.000 C 
ATOM     16  C   UNL     1      -8.025   2.090   8.361  0.00  0.00    +0.000 C 
ENDBRANCH  14  15
BRANCH  14  17
ATOM     17  C   UNL     1      -5.994   1.935   6.199  0.00  0.00    +0.000 C 
BRANCH  17  18
ATOM     18  C   UNL     1      -6.092   0.798   5.222  0.00  0.00    +0.000 C 
BRANCH  18  20
ATOM     19  C   UNL     1      -7.485  -1.189   4.625  0.00  0.00    +0.000 C 
ATOM     20  C   UNL     1      -6.963  -0.308   5.764  0.00  0.00    +0.000 C 
ENDBRANCH  18  20
ENDBRANCH  17  18
ENDBRANCH  14  17
ENDBRANCH  13  14
ENDBRANCH   1  13
TORSDOF 9
ENDMDL
MODEL 3
REMARK VINA RESULT:      -4.0      1.588      2.156
REMARK  Name = s3_esm2_f4_ligand
REMARK  12 active torsions:
REMARK  status: ('A' for Active; 'I' for Inactive)
REMARK    1  A    between atoms: C_1  and  C_2
REMARK    2  A    between atoms: C_2  and  C_3
REMARK    3  A    between atoms: C_3  and  C_4
REMARK    4  A    between atoms: C_4  and  C_5
REMARK    5  A    between atoms: C_5  and  C_6
REMARK    6  A    between atoms: C_5  and  O_8
REMARK    7  A    between atoms: C_6  and  C_7
REMARK    8  A    between atoms: O_8  and  C_9
REMARK    9  A    between atoms: C_9  and  C_11
REMARK   10  A    between atoms: C_12  and  C_13
REMARK   11  A    between atoms: C_16  and  O_17
REMARK   12  A    between atoms: O_17  and  C_18
REMARK                            x       y       z     vdW  Elec       q    Type
REMARK                         _______ _______ _______ _____ _____    ______ ____
ROOT
ATOM      1  C   UNL     1      -7.173   0.916   5.412  0.00  0.00    +0.000 C 
ATOM      2  O   UNL     1      -8.330   1.214   5.539  0.00  0.00    +0.000 OA
ENDROOT
BRANCH   1   3
ATOM      3  C   UNL     1      -6.076   1.806   5.779  0.00  0.00    +0.000 C 
ATOM      4  C   UNL     1      -6.020   2.358   6.986  0.00  0.00    +0.000 C 
BRANCH   4   5
ATOM      5  C   UNL     1      -4.841   3.094   7.489  0.00  0.00    +0.000 A 
ATOM      6  C   UNL     1      -4.519   4.347   7.009  0.00  0.00    +0.000 A 
ATOM      7  C   UNL     1      -3.390   4.997   7.473  0.00  0.00    +0.000 A 
ATOM      8  C   UNL     1      -2.583   4.416   8.405  0.00  0.00    +0.000 A 
ATOM      9  C   UNL     1      -2.907   3.167   8.894  0.00  0.00    +0.000 A 
ATOM     10  C   UNL     1      -4.033   2.517   8.432  0.00  0.00    +0.000 A 
BRANCH   8  11
ATOM     11  O   UNL     1      -1.484   5.078   8.827  0.00  0.00    +0.000 OA
ATOM     12  C   UNL     1      -0.195   4.573   8.522  0.00  0.00    +0.000 C 
ENDBRANCH   8  11
ENDBRANCH   4   5
ENDBRANCH   1   3
BRANCH   1  13
ATOM     13  O   UNL     1      -6.794  -0.277   4.885  0.00  0.00    +0.000 OA
BRANCH  13  14
ATOM     14  C   UNL     1      -6.333  -1.297   5.752  0.00  0.00    +0.000 C 
BRANCH  14  15
ATOM     15  C   UNL     1      -7.410  -2.339   5.948  0.00  0.00    +0.000 C 
ATOM     16  C   UNL     1      -6.987  -3.524   6.765  0.00  0.00    +0.000 C 
ENDBRANCH  14  15
BRANCH  14  17
ATOM     17  C   UNL     1      -5.099  -1.950   5.144  0.00  0.00    +0.000 C 
BRANCH  17  18
ATOM     18  C   UNL     1      -3.856  -1.160   5.439  0.00  0.00    +0.000 C 
BRANCH  18  20
ATOM     19  C   UNL     1      -3.020  -1.987   7.644  0.00  0.00    +0.000 C 
ATOM     20  C   UNL     1      -3.745  -0.854   6.912  0.00  0.00    +0.000 C 
ENDBRANCH  18  20
ENDBRANCH  17  18
ENDBRANCH  14  17
ENDBRANCH  13  14
ENDBRANCH   1  13
TORSDOF 9
ENDMDL
MODEL 4
REMARK VINA RESULT:      -4.0      2.830      6.957
REMARK  Name = s3_esm2_f4_ligand
REMARK  12 active torsions:
REMARK  status: ('A' for Active; 'I' for Inactive)
REMARK    1  A    between atoms: C_1  and  C_2
REMARK    2  A    between atoms: C_2  and  C_3
REMARK    3  A    between atoms: C_3  and  C_4
REMARK    4  A    between atoms: C_4  and  C_5
REMARK    5  A    between atoms: C_5  and  C_6
REMARK    6  A    between atoms: C_5  and  O_8
REMARK    7  A    between atoms: C_6  and  C_7
REMARK    8  A    between atoms: O_8  and  C_9
REMARK    9  A    between atoms: C_9  and  C_11
REMARK   10  A    between atoms: C_12  and  C_13
REMARK   11  A    between atoms: C_16  and  O_17
REMARK   12  A    between atoms: O_17  and  C_18
REMARK                            x       y       z     vdW  Elec       q    Type
REMARK                         _______ _______ _______ _____ _____    ______ ____
ROOT
ATOM      1  C   UNL     1      -6.016   0.177   5.249  0.00  0.00    +0.000 C 
ATOM      2  O   UNL     1      -6.976   0.599   4.664  0.00  0.00    +0.000 OA
ENDROOT
BRANCH   1   3
ATOM      3  C   UNL     1      -5.728  -1.248   5.383  0.00  0.00    +0.000 C 
ATOM      4  C   UNL     1      -4.492  -1.711   5.239  0.00  0.00    +0.000 C 
BRANCH   4   5
ATOM      5  C   UNL     1      -4.100  -3.099   5.565  0.00  0.00    +0.000 A 
ATOM      6  C   UNL     1      -3.358  -3.389   6.692  0.00  0.00    +0.000 A 
ATOM      7  C   UNL     1      -2.976  -4.692   6.953  0.00  0.00    +0.000 A 
ATOM      8  C   UNL     1      -3.323  -5.704   6.109  0.00  0.00    +0.000 A 
ATOM      9  C   UNL     1      -4.072  -5.419   4.985  0.00  0.00    +0.000 A 
ATOM     10  C   UNL     1      -4.454  -4.119   4.723  0.00  0.00    +0.000 A 
BRANCH   8  11
ATOM     11  O   UNL     1      -2.923  -6.962   6.392  0.00  0.00    +0.000 OA
ATOM     12  C   UNL     1      -2.896  -7.942   5.367  0.00  0.00    +0.000 C 
ENDBRANCH   8  11
ENDBRANCH   4   5
ENDBRANCH   1   3
BRANCH   1  13
ATOM     13  O   UNL     1      -5.127   1.003   5.859  0.00  0.00    +0.000 OA
BRANCH  13  14
ATOM     14  C   UNL     1      -5.325   1.343   7.219  0.00  0.00    +0.000 C 
BRANCH  14  15
ATOM     15  C   UNL     1      -4.093   1.005   8.025  0.00  0.00    +0.000 C 
ATOM     16  C   UNL     1      -4.152  -0.320   8.727  0.00  0.00    +0.000 C 
ENDBRANCH  14  15
BRANCH  14  17
ATOM     17  C   UNL     1      -5.608   2.835   7.326  0.00  0.00    +0.000 C 
BRANCH  17  18
ATOM     18  C   UNL     1      -4.424   3.583   7.868  0.00  0.00    +0.000 C 
BRANCH  18  20
ATOM     19  C   UNL     1      -2.749   5.347   7.294  0.00  0.00    +0.000 C 
ATOM     20  C   UNL     1      -4.185   4.854   7.092  0.00  0.00    +0.000 C 
ENDBRANCH  18  20
ENDBRANCH  17  18
ENDBRANCH  14  17
ENDBRANCH  13  14
ENDBRANCH   1  13
TORSDOF 9
ENDMDL
MODEL 5
REMARK VINA RESULT:      -3.9      2.658      7.123
REMARK  Name = s3_esm2_f4_ligand
REMARK  12 active torsions:
REMARK  status: ('A' for Active; 'I' for Inactive)
REMARK    1  A    between atoms: C_1  and  C_2
REMARK    2  A    between atoms: C_2  and  C_3
REMARK    3  A    between atoms: C_3  and  C_4
REMARK    4  A    between atoms: C_4  and  C_5
REMARK    5  A    between atoms: C_5  and  C_6
REMARK    6  A    between atoms: C_5  and  O_8
REMARK    7  A    between atoms: C_6  and  C_7
REMARK    8  A    between atoms: O_8  and  C_9
REMARK    9  A    between atoms: C_9  and  C_11
REMARK   10  A    between atoms: C_12  and  C_13
REMARK   11  A    between atoms: C_16  and  O_17
REMARK   12  A    between atoms: O_17  and  C_18
REMARK                            x       y       z     vdW  Elec       q    Type
REMARK                         _______ _______ _______ _____ _____    ______ ____
ROOT
ATOM      1  C   UNL     1      -3.668   0.990   9.062  0.00  0.00    +0.000 C 
ATOM      2  O   UNL     1      -3.363   1.160  10.211  0.00  0.00    +0.000 OA
ENDROOT
BRANCH   1   3
ATOM      3  C   UNL     1      -3.967  -0.325   8.503  0.00  0.00    +0.000 C 
ATOM      4  C   UNL     1      -3.624  -0.631   7.257  0.00  0.00    +0.000 C 
BRANCH   4   5
ATOM      5  C   UNL     1      -3.708  -1.999   6.703  0.00  0.00    +0.000 A 
ATOM      6  C   UNL     1      -3.249  -3.090   7.413  0.00  0.00    +0.000 A 
ATOM      7  C   UNL     1      -3.309  -4.354   6.855  0.00  0.00    +0.000 A 
ATOM      8  C   UNL     1      -3.818  -4.542   5.605  0.00  0.00    +0.000 A 
ATOM      9  C   UNL     1      -4.286  -3.455   4.895  0.00  0.00    +0.000 A 
ATOM     10  C   UNL     1      -4.227  -2.193   5.450  0.00  0.00    +0.000 A 
BRANCH   8  11
ATOM     11  O   UNL     1      -3.851  -5.790   5.089  0.00  0.00    +0.000 OA
ATOM     12  C   UNL     1      -4.241  -5.987   3.740  0.00  0.00    +0.000 C 
ENDBRANCH   8  11
ENDBRANCH   4   5
ENDBRANCH   1   3
BRANCH   1  13
ATOM     13  O   UNL     1      -3.732   2.018   8.177  0.00  0.00    +0.000 OA
BRANCH  13  14
ATOM     14  C   UNL     1      -4.922   2.782   8.093  0.00  0.00    +0.000 C 
BRANCH  14  15
ATOM     15  C   UNL     1      -4.641   4.223   8.449  0.00  0.00    +0.000 C 
ATOM     16  C   UNL     1      -4.062   5.038   7.330  0.00  0.00    +0.000 C 
ENDBRANCH  14  15
BRANCH  14  17
ATOM     17  C   UNL     1      -5.466   2.706   6.673  0.00  0.00    +0.000 C 
BRANCH  17  18
ATOM     18  C   UNL     1      -6.569   1.692   6.559  0.00  0.00    +0.000 C 
BRANCH  18  20
ATOM     19  C   UNL     1      -7.704   0.868   4.492  0.00  0.00    +0.000 C 
ATOM     20  C   UNL     1      -6.412   0.858   5.313  0.00  0.00    +0.000 C 
ENDBRANCH  18  20
ENDBRANCH  17  18
ENDBRANCH  14  17
ENDBRANCH  13  14
ENDBRANCH   1  13
TORSDOF 9
ENDMDL
MODEL 6
REMARK VINA RESULT:      -3.9      1.909      2.988
REMARK  Name = s3_esm2_f4_ligand
REMARK  12 active torsions:
REMARK  status: ('A' for Active; 'I' for Inactive)
REMARK    1  A    between atoms: C_1  and  C_2
REMARK    2  A    between atoms: C_2  and  C_3
REMARK    3  A    between atoms: C_3  and  C_4
REMARK    4  A    between atoms: C_4  and  C_5
REMARK    5  A    between atoms: C_5  and  C_6
REMARK    6  A    between atoms: C_5  and  O_8
REMARK    7  A    between atoms: C_6  and  C_7
REMARK    8  A    between atoms: O_8  and  C_9
REMARK    9  A    between atoms: C_9  and  C_11
REMARK   10  A    between atoms: C_12  and  C_13
REMARK   11  A    between atoms: C_16  and  O_17
REMARK   12  A    between atoms: O_17  and  C_18
REMARK                            x       y       z     vdW  Elec       q    Type
REMARK                         _______ _______ _______ _____ _____    ______ ____
ROOT
ATOM      1  C   UNL     1      -8.020   1.062   7.184  0.00  0.00    +0.000 C 
ATOM      2  O   UNL     1      -9.186   1.190   7.441  0.00  0.00    +0.000 OA
ENDROOT
BRANCH   1   3
ATOM      3  C   UNL     1      -7.039   2.125   7.386  0.00  0.00    +0.000 C 
ATOM      4  C   UNL     1      -5.837   1.858   7.883  0.00  0.00    +0.000 C 
BRANCH   4   5
ATOM      5  C   UNL     1      -4.734   2.842   7.916  0.00  0.00    +0.000 A 
ATOM      6  C   UNL     1      -4.778   3.995   7.158  0.00  0.00    +0.000 A 
ATOM      7  C   UNL     1      -3.716   4.880   7.184  0.00  0.00    +0.000 A 
ATOM      8  C   UNL     1      -2.617   4.632   7.951  0.00  0.00    +0.000 A 
ATOM      9  C   UNL     1      -2.573   3.484   8.716  0.00  0.00    +0.000 A 
ATOM     10  C   UNL     1      -3.632   2.600   8.693  0.00  0.00    +0.000 A 
BRANCH   8  11
ATOM     11  O   UNL     1      -1.595   5.515   7.941  0.00  0.00    +0.000 OA
ATOM     12  C   UNL     1      -0.294   5.094   8.317  0.00  0.00    +0.000 C 
ENDBRANCH   8  11
ENDBRANCH   4   5
ENDBRANCH   1   3
BRANCH   1  13
ATOM     13  O   UNL     1      -7.523  -0.085   6.656  0.00  0.00    +0.000 OA
BRANCH  13  14
ATOM     14  C   UNL     1      -7.853  -0.430   5.323  0.00  0.00    +0.000 C 
BRANCH  14  15
ATOM     15  C   UNL     1      -7.583   0.737   4.402  0.00  0.00    +0.000 C 
ATOM     16  C   UNL     1      -8.674   1.011   3.410  0.00  0.00    +0.000 C 
ENDBRANCH  14  15
BRANCH  14  17
ATOM     17  C   UNL     1      -7.012  -1.623   4.892  0.00  0.00    +0.000 C 
BRANCH  17  18
ATOM     18  C   UNL     1      -5.906  -1.901   5.870  0.00  0.00    +0.000 C 
BRANCH  18  20
ATOM     19  C   UNL     1      -3.695  -0.926   6.505  0.00  0.00    +0.000 C 
ATOM     20  C   UNL     1      -4.584  -1.396   5.350  0.00  0.00    +0.000 C 
ENDBRANCH  18  20
ENDBRANCH  17  18
ENDBRANCH  14  17
ENDBRANCH  13  14
ENDBRANCH   1  13
TORSDOF 9
ENDMDL
MODEL 7
REMARK VINA RESULT:      -3.8      3.101      7.591
REMARK  Name = s3_esm2_f4_ligand
REMARK  12 active torsions:
REMARK  status: ('A' for Active; 'I' for Inactive)
REMARK    1  A    between atoms: C_1  and  C_2
REMARK    2  A    between atoms: C_2  and  C_3
REMARK    3  A    between atoms: C_3  and  C_4
REMARK    4  A    between atoms: C_4  and  C_5
REMARK    5  A    between atoms: C_5  and  C_6
REMARK    6  A    between atoms: C_5  and  O_8
REMARK    7  A    between atoms: C_6  and  C_7
REMARK    8  A    between atoms: O_8  and  C_9
REMARK    9  A    between atoms: C_9  and  C_11
REMARK   10  A    between atoms: C_12  and  C_13
REMARK   11  A    between atoms: C_16  and  O_17
REMARK   12  A    between atoms: O_17  and  C_18
REMARK                            x       y       z     vdW  Elec       q    Type
REMARK                         _______ _______ _______ _____ _____    ______ ____
ROOT
ATOM      1  C   UNL     1      -4.165  -0.313   7.732  0.00  0.00    +0.000 C 
ATOM      2  O   UNL     1      -3.193   0.307   8.071  0.00  0.00    +0.000 OA
ENDROOT
BRANCH   1   3
ATOM      3  C   UNL     1      -4.150  -1.755   7.505  0.00  0.00    +0.000 C 
ATOM      4  C   UNL     1      -4.144  -2.251   6.273  0.00  0.00    +0.000 C 
BRANCH   4   5
ATOM      5  C   UNL     1      -3.921  -3.682   5.974  0.00  0.00    +0.000 A 
ATOM      6  C   UNL     1      -3.177  -4.483   6.816  0.00  0.00    +0.000 A 
ATOM      7  C   UNL     1      -2.956  -5.809   6.492  0.00  0.00    +0.000 A 
ATOM      8  C   UNL     1      -3.464  -6.343   5.346  0.00  0.00    +0.000 A 
ATOM      9  C   UNL     1      -4.215  -5.547   4.506  0.00  0.00    +0.000 A 
ATOM     10  C   UNL     1      -4.438  -4.223   4.827  0.00  0.00    +0.000 A 
BRANCH   8  11
ATOM     11  O   UNL     1      -3.218  -7.640   5.059  0.00  0.00    +0.000 OA
ATOM     12  C   UNL     1      -3.014  -8.039   3.714  0.00  0.00    +0.000 C 
ENDBRANCH   8  11
ENDBRANCH   4   5
ENDBRANCH   1   3
BRANCH   1  13
ATOM     13  O   UNL     1      -5.359   0.293   7.506  0.00  0.00    +0.000 OA
BRANCH  13  14
ATOM     14  C   UNL     1      -5.377   1.587   6.934  0.00  0.00    +0.000 C 
BRANCH  14  15
ATOM     15  C   UNL     1      -6.011   1.541   5.564  0.00  0.00    +0.000 C 
ATOM     16  C   UNL     1      -6.751   0.271   5.263  0.00  0.00    +0.000 C 
ENDBRANCH  14  15
BRANCH  14  17
ATOM     17  C   UNL     1      -6.177   2.521   7.833  0.00  0.00    +0.000 C 
BRANCH  17  18
ATOM     18  C   UNL     1      -5.280   3.450   8.600  0.00  0.00    +0.000 C 
BRANCH  18  20
ATOM     19  C   UNL     1      -4.169   5.138   7.130  0.00  0.00    +0.000 C 
ATOM     20  C   UNL     1      -4.035   3.773   7.813  0.00  0.00    +0.000 C 
ENDBRANCH  18  20
ENDBRANCH  17  18
ENDBRANCH  14  17
ENDBRANCH  13  14
ENDBRANCH   1  13
TORSDOF 9
ENDMDL
MODEL 8
REMARK VINA RESULT:      -3.7      3.328      7.803
REMARK  Name = s3_esm2_f4_ligand
REMARK  12 active torsions:
REMARK  status: ('A' for Active; 'I' for Inactive)
REMARK    1  A    between atoms: C_1  and  C_2
REMARK    2  A    between atoms: C_2  and  C_3
REMARK    3  A    between atoms: C_3  and  C_4
REMARK    4  A    between atoms: C_4  and  C_5
REMARK    5  A    between atoms: C_5  and  C_6
REMARK    6  A    between atoms: C_5  and  O_8
REMARK    7  A    between atoms: C_6  and  C_7
REMARK    8  A    between atoms: O_8  and  C_9
REMARK    9  A    between atoms: C_9  and  C_11
REMARK   10  A    between atoms: C_12  and  C_13
REMARK   11  A    between atoms: C_16  and  O_17
REMARK   12  A    between atoms: O_17  and  C_18
REMARK                            x       y       z     vdW  Elec       q    Type
REMARK                         _______ _______ _______ _____ _____    ______ ____
ROOT
ATOM      1  C   UNL     1      -3.988  -0.773   6.977  0.00  0.00    +0.000 C 
ATOM      2  O   UNL     1      -3.098  -0.370   7.675  0.00  0.00    +0.000 OA
ENDROOT
BRANCH   1   3
ATOM      3  C   UNL     1      -3.865  -1.958   6.132  0.00  0.00    +0.000 C 
ATOM      4  C   UNL     1      -3.635  -3.153   6.664  0.00  0.00    +0.000 C 
BRANCH   4   5
ATOM      5  C   UNL     1      -3.706  -4.413   5.893  0.00  0.00    +0.000 A 
ATOM      6  C   UNL     1      -4.329  -4.466   4.662  0.00  0.00    +0.000 A 
ATOM      7  C   UNL     1      -4.411  -5.666   3.980  0.00  0.00    +0.000 A 
ATOM      8  C   UNL     1      -3.882  -6.807   4.506  0.00  0.00    +0.000 A 
ATOM      9  C   UNL     1      -3.252  -6.755   5.733  0.00  0.00    +0.000 A 
ATOM     10  C   UNL     1      -3.168  -5.559   6.415  0.00  0.00    +0.000 A 
BRANCH   8  11
ATOM     11  O   UNL     1      -3.991  -7.962   3.815  0.00  0.00    +0.000 OA
ATOM     12  C   UNL     1      -3.565  -9.180   4.403  0.00  0.00    +0.000 C 
ENDBRANCH   8  11
ENDBRANCH   4   5
ENDBRANCH   1   3
BRANCH   1  13
ATOM     13  O   UNL     1      -5.184  -0.134   6.900  0.00  0.00    +0.000 OA
BRANCH  13  14
ATOM     14  C   UNL     1      -5.558   0.482   5.682  0.00  0.00    +0.000 C 
BRANCH  14  15
ATOM     15  C   UNL     1      -6.725  -0.253   5.064  0.00  0.00    +0.000 C 
ATOM     16  C   UNL     1      -7.676   0.621   4.300  0.00  0.00    +0.000 C 
ENDBRANCH  14  15
BRANCH  14  17
ATOM     17  C   UNL     1      -5.955   1.927   5.953  0.00  0.00    +0.000 C 
BRANCH  17  18
ATOM     18  C   UNL     1      -6.126   2.185   7.423  0.00  0.00    +0.000 C 
BRANCH  18  20
ATOM     19  C   UNL     1      -7.749   2.423   9.308  0.00  0.00    +0.000 C 
ATOM     20  C   UNL     1      -7.574   2.067   7.829  0.00  0.00    +0.000 C 
ENDBRANCH  18  20
ENDBRANCH  17  18
ENDBRANCH  14  17
ENDBRANCH  13  14
ENDBRANCH   1  13
TORSDOF 9
ENDMDL
MODEL 9
REMARK VINA RESULT:      -3.7      2.513      6.676
REMARK  Name = s3_esm2_f4_ligand
REMARK  12 active torsions:
REMARK  status: ('A' for Active; 'I' for Inactive)
REMARK    1  A    between atoms: C_1  and  C_2
REMARK    2  A    between atoms: C_2  and  C_3
REMARK    3  A    between atoms: C_3  and  C_4
REMARK    4  A    between atoms: C_4  and  C_5
REMARK    5  A    between atoms: C_5  and  C_6
REMARK    6  A    between atoms: C_5  and  O_8
REMARK    7  A    between atoms: C_6  and  C_7
REMARK    8  A    between atoms: O_8  and  C_9
REMARK    9  A    between atoms: C_9  and  C_11
REMARK   10  A    between atoms: C_12  and  C_13
REMARK   11  A    between atoms: C_16  and  O_17
REMARK   12  A    between atoms: O_17  and  C_18
REMARK                            x       y       z     vdW  Elec       q    Type
REMARK                         _______ _______ _______ _____ _____    ______ ____
ROOT
ATOM      1  C   UNL     1      -6.056   1.184   5.445  0.00  0.00    +0.000 C 
ATOM      2  O   UNL     1      -7.070   1.192   4.802  0.00  0.00    +0.000 OA
ENDROOT
BRANCH   1   3
ATOM      3  C   UNL     1      -5.226  -0.006   5.609  0.00  0.00    +0.000 C 
ATOM      4  C   UNL     1      -5.759  -1.162   5.989  0.00  0.00    +0.000 C 
BRANCH   4   5
ATOM      5  C   UNL     1      -5.019  -2.442   5.972  0.00  0.00    +0.000 A 
ATOM      6  C   UNL     1      -5.439  -3.503   5.194  0.00  0.00    +0.000 A 
ATOM      7  C   UNL     1      -4.747  -4.699   5.226  0.00  0.00    +0.000 A 
ATOM      8  C   UNL     1      -3.649  -4.852   6.018  0.00  0.00    +0.000 A 
ATOM      9  C   UNL     1      -3.222  -3.791   6.791  0.00  0.00    +0.000 A 
ATOM     10  C   UNL     1      -3.910  -2.595   6.761  0.00  0.00    +0.000 A 
BRANCH   8  11
ATOM     11  O   UNL     1      -3.006  -6.039   6.030  0.00  0.00    +0.000 OA
ATOM     12  C   UNL     1      -3.340  -7.033   5.075  0.00  0.00    +0.000 C 
ENDBRANCH   8  11
ENDBRANCH   4   5
ENDBRANCH   1   3
BRANCH   1  13
ATOM     13  O   UNL     1      -5.612   2.288   6.099  0.00  0.00    +0.000 OA
BRANCH  13  14
ATOM     14  C   UNL     1      -5.439   2.235   7.503  0.00  0.00    +0.000 C 
BRANCH  14  15
ATOM     15  C   UNL     1      -4.421   3.262   7.942  0.00  0.00    +0.000 C 
ATOM     16  C   UNL     1      -4.380   4.498   7.093  0.00  0.00    +0.000 C 
ENDBRANCH  14  15
BRANCH  14  17
ATOM     17  C   UNL     1      -6.772   2.519   8.183  0.00  0.00    +0.000 C 
BRANCH  17  18
ATOM     18  C   UNL     1      -7.182   1.390   9.086  0.00  0.00    +0.000 C 
BRANCH  18  20
ATOM     19  C   UNL     1      -9.211   1.225   7.637  0.00  0.00    +0.000 C 
ATOM     20  C   UNL     1      -8.121   0.445   8.379  0.00  0.00    +0.000 C 
ENDBRANCH  18  20
ENDBRANCH  17  18
ENDBRANCH  14  17
ENDBRANCH  13  14
ENDBRANCH   1  13
TORSDOF 9
ENDMDL
