REMARK  Name = bgox31_4_ligand
REMARK  5 active torsions:
REMARK  status: ('A' for Active; 'I' for Inactive)
REMARK    1  A    between atoms: C_1  and  O_2
REMARK    2  A    between atoms: O_2  and  C_3
REMARK    3  A    between atoms: C_6  and  C_7
REMARK    4  A    between atoms: C_7  and  C_9
REMARK    5  A    between atoms: C_15  and  O_16
REMARK                            x       y       z     vdW  Elec       q    Type
REMARK                         _______ _______ _______ _____ _____    ______ ____
ROOT
ATOM      1  C   UNL     1      -0.600   4.966  -9.051  0.00  0.00    +0.000 A 
ATOM      2  C   UNL     1      -1.649   4.747  -8.201  0.00  0.00    +0.000 A 
ATOM      3  C   UNL     1      -2.354   5.847  -7.591  0.00  0.00    +0.000 A 
ATOM      4  C   UNL     1      -1.874   7.136  -7.863  0.00  0.00    +0.000 A 
ATOM      5  C   UNL     1      -0.820   7.332  -8.746  0.00  0.00    +0.000 A 
ATOM      6  C   UNL     1      -0.149   6.253  -9.352  0.00  0.00    +0.000 A 
ENDROOT
BRANCH   1   8
ATOM      7  C   UNL     1       1.222   4.186 -10.383  0.00  0.00    +0.000 C 
ATOM      8  O   UNL     1       0.016   3.886  -9.631  0.00  0.00    +0.000 OA
ENDBRANCH   1   8
BRANCH   4   9
ATOM      9  C   UNL     1      -2.580   8.250  -7.206  0.00  0.00    +0.000 C 
ATOM     10  O   UNL     1      -3.796   8.432  -7.547  0.00  0.00    +0.000 OA
BRANCH   9  11
ATOM     11  C   UNL     1      -2.072   8.984  -6.045  0.00  0.00    +0.000 A 
ATOM     12  C   UNL     1      -2.971   9.839  -5.394  0.00  0.00    +0.000 A 
ATOM     13  C   UNL     1      -2.505  10.636  -4.326  0.00  0.00    +0.000 A 
ATOM     14  C   UNL     1      -1.183  10.636  -4.012  0.00  0.00    +0.000 A 
ATOM     15  C   UNL     1      -0.264   9.847  -4.683  0.00  0.00    +0.000 A 
ATOM     16  C   UNL     1      -0.696   9.021  -5.740  0.00  0.00    +0.000 A 
ENDBRANCH   9  11
ENDBRANCH   4   9
BRANCH   5  17
ATOM     17  O   UNL     1      -0.406   8.653  -8.992  0.00  0.00    +0.000 OA
ATOM     18  H   UNL     1       0.343   8.829  -9.616  0.00  0.00    +0.000 HD
ENDBRANCH   5  17
TORSDOF 4
