MODEL 1
REMARK VINA RESULT:      -4.7      0.000      0.000
REMARK  Name = bgox31_4_ligand
REMARK  5 active torsions:
REMARK  status: ('A' for Active; 'I' for Inactive)
REMARK    1  A    between atoms: C_1  and  O_2
REMARK    2  A    between atoms: O_2  and  C_3
REMARK    3  A    between atoms: C_6  and  C_7
REMARK    4  A    between atoms: C_7  and  C_9
REMARK    5  A    between atoms: C_15  and  O_16
REMARK                            x       y       z     vdW  Elec       q    Type
REMARK                         _______ _______ _______ _____ _____    ______ ____
ROOT
ATOM      1  C   UNL     1       1.859   3.389  -7.407  0.00  0.00    +0.000 A 
ATOM      2  C   UNL     1       2.404   2.682  -6.371  0.00  0.00    +0.000 A 
ATOM      3  C   UNL     1       3.048   1.411  -6.595  0.00  0.00    +0.000 A 
ATOM      4  C   UNL     1       3.031   0.915  -7.906  0.00  0.00    +0.000 A 
ATOM      5  C   UNL     1       2.488   1.663  -8.944  0.00  0.00    +0.000 A 
ATOM      6  C   UNL     1       1.878   2.911  -8.719  0.00  0.00    +0.000 A 
ENDROOT
BRANCH   1   8
ATOM      7  C   UNL     1       2.151   5.758  -7.345  0.00  0.00    +0.000 C 
ATOM      8  O   UNL     1       1.287   4.608  -7.144  0.00  0.00    +0.000 OA
ENDBRANCH   1   8
BRANCH   4   9
ATOM      9  C   UNL     1       3.661  -0.400  -8.117  0.00  0.00    +0.000 C 
ATOM     10  O   UNL     1       2.956  -1.277  -8.719  0.00  0.00    +0.000 OA
BRANCH   9  11
ATOM     11  C   UNL     1       5.083  -0.682  -7.910  0.00  0.00    +0.000 A 
ATOM     12  C   UNL     1       5.440  -2.022  -7.710  0.00  0.00    +0.000 A 
ATOM     13  C   UNL     1       6.784  -2.334  -7.416  0.00  0.00    +0.000 A 
ATOM     14  C   UNL     1       7.685  -1.333  -7.234  0.00  0.00    +0.000 A 
ATOM     15  C   UNL     1       7.341   0.002  -7.363  0.00  0.00    +0.000 A 
ATOM     16  C   UNL     1       6.013   0.352  -7.679  0.00  0.00    +0.000 A 
ENDBRANCH   9  11
ENDBRANCH   4   9
BRANCH   5  17
ATOM     17  O   UNL     1       2.527   1.115 -10.238  0.00  0.00    +0.000 OA
ATOM     18  H   UNL     1       3.187   1.449 -10.898  0.00  0.00    +0.000 HD
ENDBRANCH   5  17
TORSDOF 4
ENDMDL
MODEL 2
REMARK VINA RESULT:      -4.5      2.185      3.487
REMARK  Name = bgox31_4_ligand
REMARK  5 active torsions:
REMARK  status: ('A' for Active; 'I' for Inactive)
REMARK    1  A    between atoms: C_1  and  O_2
REMARK    2  A    between atoms: O_2  and  C_3
REMARK    3  A    between atoms: C_6  and  C_7
REMARK    4  A    between atoms: C_7  and  C_9
REMARK    5  A    between atoms: C_15  and  O_16
REMARK                            x       y       z     vdW  Elec       q    Type
REMARK                         _______ _______ _______ _____ _____    ______ ____
ROOT
ATOM      1  C   UNL     1       3.159   6.274  -8.605  0.00  0.00    +0.000 A 
ATOM      2  C   UNL     1       4.422   5.756  -8.526  0.00  0.00    +0.000 A 
ATOM      3  C   UNL     1       4.675   4.511  -7.845  0.00  0.00    +0.000 A 
ATOM      4  C   UNL     1       3.581   3.896  -7.222  0.00  0.00    +0.000 A 
ATOM      5  C   UNL     1       2.304   4.431  -7.334  0.00  0.00    +0.000 A 
ATOM      6  C   UNL     1       2.063   5.638  -8.017  0.00  0.00    +0.000 A 
ENDROOT
BRANCH   1   8
ATOM      7  C   UNL     1       2.190   7.330 -10.515  0.00  0.00    +0.000 C 
ATOM      8  O   UNL     1       2.966   7.445  -9.292  0.00  0.00    +0.000 OA
ENDBRANCH   1   8
BRANCH   4   9
ATOM      9  C   UNL     1       3.858   2.642  -6.499  0.00  0.00    +0.000 C 
ATOM     10  O   UNL     1       3.615   2.643  -5.246  0.00  0.00    +0.000 OA
BRANCH   9  11
ATOM     11  C   UNL     1       4.150   1.360  -7.144  0.00  0.00    +0.000 A 
ATOM     12  C   UNL     1       3.071   0.486  -7.332  0.00  0.00    +0.000 A 
ATOM     13  C   UNL     1       3.316  -0.797  -7.866  0.00  0.00    +0.000 A 
ATOM     14  C   UNL     1       4.593  -1.199  -8.096  0.00  0.00    +0.000 A 
ATOM     15  C   UNL     1       5.681  -0.375  -7.859  0.00  0.00    +0.000 A 
ATOM     16  C   UNL     1       5.474   0.921  -7.346  0.00  0.00    +0.000 A 
ENDBRANCH   9  11
ENDBRANCH   4   9
BRANCH   5  17
ATOM     17  O   UNL     1       1.248   3.749  -6.704  0.00  0.00    +0.000 OA
ATOM     18  H   UNL     1       0.860   2.941  -7.125  0.00  0.00    +0.000 HD
ENDBRANCH   5  17
TORSDOF 4
ENDMDL
MODEL 3
REMARK VINA RESULT:      -4.5      2.293      3.660
REMARK  Name = bgox31_4_ligand
REMARK  5 active torsions:
REMARK  status: ('A' for Active; 'I' for Inactive)
REMARK    1  A    between atoms: C_1  and  O_2
REMARK    2  A    between atoms: O_2  and  C_3
REMARK    3  A    between atoms: C_6  and  C_7
REMARK    4  A    between atoms: C_7  and  C_9
REMARK    5  A    between atoms: C_15  and  O_16
REMARK                            x       y       z     vdW  Elec       q    Type
REMARK                         _______ _______ _______ _____ _____    ______ ____
ROOT
ATOM      1  C   UNL     1       4.203   6.495  -7.080  0.00  0.00    +0.000 A 
ATOM      2  C   UNL     1       5.262   5.728  -6.676  0.00  0.00    +0.000 A 
ATOM      3  C   UNL     1       5.092   4.330  -6.369  0.00  0.00    +0.000 A 
ATOM      4  C   UNL     1       3.789   3.817  -6.446  0.00  0.00    +0.000 A 
ATOM      5  C   UNL     1       2.736   4.612  -6.879  0.00  0.00    +0.000 A 
ATOM      6  C   UNL     1       2.913   5.972  -7.195  0.00  0.00    +0.000 A 
ENDROOT
BRANCH   1   8
ATOM      7  C   UNL     1       5.636   8.390  -6.838  0.00  0.00    +0.000 C 
ATOM      8  O   UNL     1       4.424   7.812  -7.392  0.00  0.00    +0.000 OA
ENDBRANCH   1   8
BRANCH   4   9
ATOM      9  C   UNL     1       3.623   2.396  -6.095  0.00  0.00    +0.000 C 
ATOM     10  O   UNL     1       2.925   2.145  -5.057  0.00  0.00    +0.000 OA
BRANCH   9  11
ATOM     11  C   UNL     1       3.985   1.278  -6.970  0.00  0.00    +0.000 A 
ATOM     12  C   UNL     1       2.974   0.357  -7.272  0.00  0.00    +0.000 A 
ATOM     13  C   UNL     1       3.296  -0.785  -8.037  0.00  0.00    +0.000 A 
ATOM     14  C   UNL     1       4.588  -1.024  -8.380  0.00  0.00    +0.000 A 
ATOM     15  C   UNL     1       5.616  -0.161  -8.038  0.00  0.00    +0.000 A 
ATOM     16  C   UNL     1       5.329   1.002  -7.295  0.00  0.00    +0.000 A 
ENDBRANCH   9  11
ENDBRANCH   4   9
BRANCH   5  17
ATOM     17  O   UNL     1       1.460   4.027  -6.957  0.00  0.00    +0.000 OA
ATOM     18  H   UNL     1       0.780   4.400  -7.573  0.00  0.00    +0.000 HD
ENDBRANCH   5  17
TORSDOF 4
ENDMDL
MODEL 4
REMARK VINA RESULT:      -4.5      2.616      4.133
REMARK  Name = bgox31_4_ligand
REMARK  5 active torsions:
REMARK  status: ('A' for Active; 'I' for Inactive)
REMARK    1  A    between atoms: C_1  and  O_2
REMARK    2  A    between atoms: O_2  and  C_3
REMARK    3  A    between atoms: C_6  and  C_7
REMARK    4  A    between atoms: C_7  and  C_9
REMARK    5  A    between atoms: C_15  and  O_16
REMARK                            x       y       z     vdW  Elec       q    Type
REMARK                         _______ _______ _______ _____ _____    ______ ____
ROOT
ATOM      1  C   UNL     1       4.504   6.569  -6.615  0.00  0.00    +0.000 A 
ATOM      2  C   UNL     1       4.267   5.738  -7.675  0.00  0.00    +0.000 A 
ATOM      3  C   UNL     1       3.942   4.348  -7.472  0.00  0.00    +0.000 A 
ATOM      4  C   UNL     1       3.941   3.884  -6.149  0.00  0.00    +0.000 A 
ATOM      5  C   UNL     1       4.164   4.754  -5.089  0.00  0.00    +0.000 A 
ATOM      6  C   UNL     1       4.463   6.114  -5.295  0.00  0.00    +0.000 A 
ENDROOT
BRANCH   1   8
ATOM      7  C   UNL     1       4.321   8.822  -5.844  0.00  0.00    +0.000 C 
ATOM      8  O   UNL     1       4.777   7.891  -6.861  0.00  0.00    +0.000 OA
ENDBRANCH   1   8
BRANCH   4   9
ATOM      9  C   UNL     1       3.641   2.455  -5.956  0.00  0.00    +0.000 C 
ATOM     10  O   UNL     1       2.807   2.168  -5.034  0.00  0.00    +0.000 OA
BRANCH   9  11
ATOM     11  C   UNL     1       4.036   1.392  -6.883  0.00  0.00    +0.000 A 
ATOM     12  C   UNL     1       3.061   0.440  -7.206  0.00  0.00    +0.000 A 
ATOM     13  C   UNL     1       3.418  -0.654  -8.024  0.00  0.00    +0.000 A 
ATOM     14  C   UNL     1       4.713  -0.819  -8.402  0.00  0.00    +0.000 A 
ATOM     15  C   UNL     1       5.707   0.076  -8.042  0.00  0.00    +0.000 A 
ATOM     16  C   UNL     1       5.384   1.192  -7.245  0.00  0.00    +0.000 A 
ENDBRANCH   9  11
ENDBRANCH   4   9
BRANCH   5  17
ATOM     17  O   UNL     1       4.124   4.226  -3.786  0.00  0.00    +0.000 OA
ATOM     18  H   UNL     1       3.742   3.326  -3.628  0.00  0.00    +0.000 HD
ENDBRANCH   5  17
TORSDOF 4
ENDMDL
MODEL 5
REMARK VINA RESULT:      -4.4      2.335      3.538
REMARK  Name = bgox31_4_ligand
REMARK  5 active torsions:
REMARK  status: ('A' for Active; 'I' for Inactive)
REMARK    1  A    between atoms: C_1  and  O_2
REMARK    2  A    between atoms: O_2  and  C_3
REMARK    3  A    between atoms: C_6  and  C_7
REMARK    4  A    between atoms: C_7  and  C_9
REMARK    5  A    between atoms: C_15  and  O_16
REMARK                            x       y       z     vdW  Elec       q    Type
REMARK                         _______ _______ _______ _____ _____    ______ ____
ROOT
ATOM      1  C   UNL     1       2.466   6.260  -7.551  0.00  0.00    +0.000 A 
ATOM      2  C   UNL     1       1.754   5.186  -8.010  0.00  0.00    +0.000 A 
ATOM      3  C   UNL     1       2.018   3.855  -7.520  0.00  0.00    +0.000 A 
ATOM      4  C   UNL     1       3.071   3.714  -6.606  0.00  0.00    +0.000 A 
ATOM      5  C   UNL     1       3.765   4.824  -6.141  0.00  0.00    +0.000 A 
ATOM      6  C   UNL     1       3.489   6.122  -6.610  0.00  0.00    +0.000 A 
ENDROOT
BRANCH   1   8
ATOM      7  C   UNL     1       1.890   8.513  -7.008  0.00  0.00    +0.000 C 
ATOM      8  O   UNL     1       2.154   7.509  -8.024  0.00  0.00    +0.000 OA
ENDBRANCH   1   8
BRANCH   4   9
ATOM      9  C   UNL     1       3.355   2.345  -6.140  0.00  0.00    +0.000 C 
ATOM     10  O   UNL     1       2.897   2.030  -4.991  0.00  0.00    +0.000 OA
BRANCH   9  11
ATOM     11  C   UNL     1       3.896   1.277  -6.983  0.00  0.00    +0.000 A 
ATOM     12  C   UNL     1       3.035   0.215  -7.290  0.00  0.00    +0.000 A 
ATOM     13  C   UNL     1       3.537  -0.881  -8.024  0.00  0.00    +0.000 A 
ATOM     14  C   UNL     1       4.859  -0.937  -8.334  0.00  0.00    +0.000 A 
ATOM     15  C   UNL     1       5.742   0.071  -7.986  0.00  0.00    +0.000 A 
ATOM     16  C   UNL     1       5.273   1.192  -7.273  0.00  0.00    +0.000 A 
ENDBRANCH   9  11
ENDBRANCH   4   9
BRANCH   5  17
ATOM     17  O   UNL     1       4.793   4.611  -5.206  0.00  0.00    +0.000 OA
ATOM     18  H   UNL     1       5.320   3.772  -5.231  0.00  0.00    +0.000 HD
ENDBRANCH   5  17
TORSDOF 4
ENDMDL
MODEL 6
REMARK VINA RESULT:      -4.4      3.986      5.893
REMARK  Name = bgox31_4_ligand
REMARK  5 active torsions:
REMARK  status: ('A' for Active; 'I' for Inactive)
REMARK    1  A    between atoms: C_1  and  O_2
REMARK    2  A    between atoms: O_2  and  C_3
REMARK    3  A    between atoms: C_6  and  C_7
REMARK    4  A    between atoms: C_7  and  C_9
REMARK    5  A    between atoms: C_15  and  O_16
REMARK                            x       y       z     vdW  Elec       q    Type
REMARK                         _______ _______ _______ _____ _____    ______ ____
ROOT
ATOM      1  C   UNL     1      -1.128  -1.256 -12.651  0.00  0.00    +0.000 A 
ATOM      2  C   UNL     1      -0.082  -2.053 -12.275  0.00  0.00    +0.000 A 
ATOM      3  C   UNL     1       1.121  -1.487 -11.716  0.00  0.00    +0.000 A 
ATOM      4  C   UNL     1       1.185  -0.089 -11.635  0.00  0.00    +0.000 A 
ATOM      5  C   UNL     1       0.101   0.697 -12.005  0.00  0.00    +0.000 A 
ATOM      6  C   UNL     1      -1.077   0.135 -12.533  0.00  0.00    +0.000 A 
ENDROOT
BRANCH   1   8
ATOM      7  C   UNL     1      -2.285  -3.297 -13.093  0.00  0.00    +0.000 C 
ATOM      8  O   UNL     1      -2.262  -1.846 -13.148  0.00  0.00    +0.000 OA
ENDBRANCH   1   8
BRANCH   4   9
ATOM      9  C   UNL     1       2.433   0.479 -11.095  0.00  0.00    +0.000 C 
ATOM     10  O   UNL     1       3.204   1.056 -11.932  0.00  0.00    +0.000 OA
BRANCH   9  11
ATOM     11  C   UNL     1       2.721   0.639  -9.668  0.00  0.00    +0.000 A 
ATOM     12  C   UNL     1       3.249  -0.474  -9.001  0.00  0.00    +0.000 A 
ATOM     13  C   UNL     1       3.459  -0.399  -7.607  0.00  0.00    +0.000 A 
ATOM     14  C   UNL     1       3.059   0.705  -6.923  0.00  0.00    +0.000 A 
ATOM     15  C   UNL     1       2.476   1.793  -7.552  0.00  0.00    +0.000 A 
ATOM     16  C   UNL     1       2.271   1.763  -8.946  0.00  0.00    +0.000 A 
ENDBRANCH   9  11
ENDBRANCH   4   9
BRANCH   5  17
ATOM     17  O   UNL     1       0.225   2.091 -11.875  0.00  0.00    +0.000 OA
ATOM     18  H   UNL     1       0.215   2.508 -10.976  0.00  0.00    +0.000 HD
ENDBRANCH   5  17
TORSDOF 4
ENDMDL
MODEL 7
REMARK VINA RESULT:      -4.2      3.552      5.204
REMARK  Name = bgox31_4_ligand
REMARK  5 active torsions:
REMARK  status: ('A' for Active; 'I' for Inactive)
REMARK    1  A    between atoms: C_1  and  O_2
REMARK    2  A    between atoms: O_2  and  C_3
REMARK    3  A    between atoms: C_6  and  C_7
REMARK    4  A    between atoms: C_7  and  C_9
REMARK    5  A    between atoms: C_15  and  O_16
REMARK                            x       y       z     vdW  Elec       q    Type
REMARK                         _______ _______ _______ _____ _____    ______ ____
ROOT
ATOM      1  C   UNL     1       6.206   6.555  -4.784  0.00  0.00    +0.000 A 
ATOM      2  C   UNL     1       6.095   6.403  -6.139  0.00  0.00    +0.000 A 
ATOM      3  C   UNL     1       5.158   5.466  -6.708  0.00  0.00    +0.000 A 
ATOM      4  C   UNL     1       4.420   4.683  -5.809  0.00  0.00    +0.000 A 
ATOM      5  C   UNL     1       4.536   4.872  -4.438  0.00  0.00    +0.000 A 
ATOM      6  C   UNL     1       5.440   5.803  -3.891  0.00  0.00    +0.000 A 
ENDROOT
BRANCH   1   8
ATOM      7  C   UNL     1       7.214   8.700  -5.080  0.00  0.00    +0.000 C 
ATOM      8  O   UNL     1       7.089   7.484  -4.295  0.00  0.00    +0.000 OA
ENDBRANCH   1   8
BRANCH   4   9
ATOM      9  C   UNL     1       3.492   3.705  -6.402  0.00  0.00    +0.000 C 
ATOM     10  O   UNL     1       2.387   4.165  -6.845  0.00  0.00    +0.000 OA
BRANCH   9  11
ATOM     11  C   UNL     1       3.844   2.322  -6.730  0.00  0.00    +0.000 A 
ATOM     12  C   UNL     1       5.185   2.068  -7.044  0.00  0.00    +0.000 A 
ATOM     13  C   UNL     1       5.558   0.769  -7.455  0.00  0.00    +0.000 A 
ATOM     14  C   UNL     1       4.603  -0.181  -7.634  0.00  0.00    +0.000 A 
ATOM     15  C   UNL     1       3.262   0.065  -7.391  0.00  0.00    +0.000 A 
ATOM     16  C   UNL     1       2.855   1.343  -6.958  0.00  0.00    +0.000 A 
ENDBRANCH   9  11
ENDBRANCH   4   9
BRANCH   5  17
ATOM     17  O   UNL     1       3.747   4.070  -3.595  0.00  0.00    +0.000 OA
ATOM     18  H   UNL     1       4.103   3.210  -3.254  0.00  0.00    +0.000 HD
ENDBRANCH   5  17
TORSDOF 4
ENDMDL
MODEL 8
REMARK VINA RESULT:      -4.1      2.777      4.350
REMARK  Name = bgox31_4_ligand
REMARK  5 active torsions:
REMARK  status: ('A' for Active; 'I' for Inactive)
REMARK    1  A    between atoms: C_1  and  O_2
REMARK    2  A    between atoms: O_2  and  C_3
REMARK    3  A    between atoms: C_6  and  C_7
REMARK    4  A    between atoms: C_7  and  C_9
REMARK    5  A    between atoms: C_15  and  O_16
REMARK                            x       y       z     vdW  Elec       q    Type
REMARK                         _______ _______ _______ _____ _____    ______ ____
ROOT
ATOM      1  C   UNL     1       5.733   5.536  -6.469  0.00  0.00    +0.000 A 
ATOM      2  C   UNL     1       5.549   4.436  -5.676  0.00  0.00    +0.000 A 
ATOM      3  C   UNL     1       4.472   3.510  -5.928  0.00  0.00    +0.000 A 
ATOM      4  C   UNL     1       3.597   3.825  -6.977  0.00  0.00    +0.000 A 
ATOM      5  C   UNL     1       3.819   4.937  -7.780  0.00  0.00    +0.000 A 
ATOM      6  C   UNL     1       4.883   5.826  -7.539  0.00  0.00    +0.000 A 
ENDROOT
BRANCH   1   8
ATOM      7  C   UNL     1       7.982   5.717  -5.686  0.00  0.00    +0.000 C 
ATOM      8  O   UNL     1       6.792   6.368  -6.208  0.00  0.00    +0.000 OA
ENDBRANCH   1   8
BRANCH   4   9
ATOM      9  C   UNL     1       2.481   2.891  -7.201  0.00  0.00    +0.000 C 
ATOM     10  O   UNL     1       1.311   3.331  -6.943  0.00  0.00    +0.000 OA
BRANCH   9  11
ATOM     11  C   UNL     1       2.597   1.615  -7.911  0.00  0.00    +0.000 A 
ATOM     12  C   UNL     1       3.085   0.525  -7.179  0.00  0.00    +0.000 A 
ATOM     13  C   UNL     1       3.300  -0.702  -7.842  0.00  0.00    +0.000 A 
ATOM     14  C   UNL     1       3.127  -0.781  -9.187  0.00  0.00    +0.000 A 
ATOM     15  C   UNL     1       2.706   0.300  -9.943  0.00  0.00    +0.000 A 
ATOM     16  C   UNL     1       2.459   1.536  -9.312  0.00  0.00    +0.000 A 
ENDBRANCH   9  11
ENDBRANCH   4   9
BRANCH   5  17
ATOM     17  O   UNL     1       2.916   5.179  -8.830  0.00  0.00    +0.000 OA
ATOM     18  H   UNL     1       2.985   6.013  -9.360  0.00  0.00    +0.000 HD
ENDBRANCH   5  17
TORSDOF 4
ENDMDL
MODEL 9
REMARK VINA RESULT:      -4.0      2.677      4.594
REMARK  Name = bgox31_4_ligand
REMARK  5 active torsions:
REMARK  status: ('A' for Active; 'I' for Inactive)
REMARK    1  A    between atoms: C_1  and  O_2
REMARK    2  A    between atoms: O_2  and  C_3
REMARK    3  A    between atoms: C_6  and  C_7
REMARK    4  A    between atoms: C_7  and  C_9
REMARK    5  A    between atoms: C_15  and  O_16
REMARK                            x       y       z     vdW  Elec       q    Type
REMARK                         _______ _______ _______ _____ _____    ______ ____
ROOT
ATOM      1  C   UNL     1       5.322   6.306  -7.230  0.00  0.00    +0.000 A 
ATOM      2  C   UNL     1       4.763   5.904  -8.411  0.00  0.00    +0.000 A 
ATOM      3  C   UNL     1       3.801   4.829  -8.450  0.00  0.00    +0.000 A 
ATOM      4  C   UNL     1       3.521   4.186  -7.237  0.00  0.00    +0.000 A 
ATOM      5  C   UNL     1       4.087   4.628  -6.048  0.00  0.00    +0.000 A 
ATOM      6  C   UNL     1       5.011   5.690  -6.016  0.00  0.00    +0.000 A 
ENDROOT
BRANCH   1   8
ATOM      7  C   UNL     1       5.613   8.673  -7.104  0.00  0.00    +0.000 C 
ATOM      8  O   UNL     1       6.207   7.355  -7.242  0.00  0.00    +0.000 OA
ENDBRANCH   1   8
BRANCH   4   9
ATOM      9  C   UNL     1       2.564   3.067  -7.295  0.00  0.00    +0.000 C 
ATOM     10  O   UNL     1       1.357   3.333  -6.977  0.00  0.00    +0.000 OA
BRANCH   9  11
ATOM     11  C   UNL     1       2.844   1.768  -7.910  0.00  0.00    +0.000 A 
ATOM     12  C   UNL     1       2.429   1.593  -9.237  0.00  0.00    +0.000 A 
ATOM     13  C   UNL     1       2.595   0.330  -9.845  0.00  0.00    +0.000 A 
ATOM     14  C   UNL     1       3.059  -0.715  -9.111  0.00  0.00    +0.000 A 
ATOM     15  C   UNL     1       3.416  -0.583  -7.779  0.00  0.00    +0.000 A 
ATOM     16  C   UNL     1       3.285   0.669  -7.145  0.00  0.00    +0.000 A 
ENDBRANCH   9  11
ENDBRANCH   4   9
BRANCH   5  17
ATOM     17  O   UNL     1       3.742   3.952  -4.864  0.00  0.00    +0.000 OA
ATOM     18  H   UNL     1       4.424   3.809  -4.160  0.00  0.00    +0.000 HD
ENDBRANCH   5  17
TORSDOF 4
ENDMDL
