REMARK  Name = bgox31_3_ligand
REMARK  5 active torsions:
REMARK  status: ('A' for Active; 'I' for Inactive)
REMARK    1  A    between atoms: C_1  and  O_2
REMARK    2  A    between atoms: O_2  and  C_3
REMARK    3  A    between atoms: C_6  and  C_7
REMARK    4  A    between atoms: C_7  and  C_9
REMARK    5  A    between atoms: C_15  and  O_16
REMARK                            x       y       z     vdW  Elec       q    Type
REMARK                         _______ _______ _______ _____ _____    ______ ____
ROOT
ATOM      1  C   UNL     1       5.373   3.321  -0.929  0.00  0.00    +0.000 A 
ATOM      2  C   UNL     1       4.441   2.505  -0.345  0.00  0.00    +0.000 A 
ATOM      3  C   UNL     1       4.832   1.544   0.581  0.00  0.00    +0.000 A 
ATOM      4  C   UNL     1       6.135   1.412   0.975  0.00  0.00    +0.000 A 
ATOM      5  C   UNL     1       7.080   2.270   0.383  0.00  0.00    +0.000 A 
ATOM      6  C   UNL     1       6.728   3.185  -0.547  0.00  0.00    +0.000 A 
ENDROOT
BRANCH   1   8
ATOM      7  C   UNL     1       5.906   4.951  -2.646  0.00  0.00    +0.000 C 
ATOM      8  O   UNL     1       4.955   4.288  -1.861  0.00  0.00    +0.000 OA
ENDBRANCH   1   8
BRANCH   4   9
ATOM      9  C   UNL     1       6.571   0.361   1.953  0.00  0.00    +0.000 C 
ATOM     10  O   UNL     1       7.611  -0.251   1.754  0.00  0.00    +0.000 OA
BRANCH   9  11
ATOM     11  C   UNL     1       5.765   0.010   3.175  0.00  0.00    +0.000 A 
ATOM     12  C   UNL     1       5.620  -1.305   3.530  0.00  0.00    +0.000 A 
ATOM     13  C   UNL     1       4.858  -1.605   4.631  0.00  0.00    +0.000 A 
ATOM     14  C   UNL     1       4.377  -0.604   5.411  0.00  0.00    +0.000 A 
ATOM     15  C   UNL     1       4.582   0.761   5.108  0.00  0.00    +0.000 A 
ATOM     16  C   UNL     1       5.269   1.030   3.937  0.00  0.00    +0.000 A 
ENDBRANCH   9  11
ENDBRANCH   4   9
BRANCH   5  17
ATOM     17  O   UNL     1       8.403   2.049   0.755  0.00  0.00    +0.000 OA
ATOM     18  H   UNL     1       9.124   2.614   0.379  0.00  0.00    +0.000 HD
ENDBRANCH   5  17
TORSDOF 4
