MODEL 1
REMARK VINA RESULT:      -5.1      0.000      0.000
REMARK  Name = bgox31_3_ligand
REMARK  5 active torsions:
REMARK  status: ('A' for Active; 'I' for Inactive)
REMARK    1  A    between atoms: C_1  and  O_2
REMARK    2  A    between atoms: O_2  and  C_3
REMARK    3  A    between atoms: C_6  and  C_7
REMARK    4  A    between atoms: C_7  and  C_9
REMARK    5  A    between atoms: C_15  and  O_16
REMARK                            x       y       z     vdW  Elec       q    Type
REMARK                         _______ _______ _______ _____ _____    ______ ____
ROOT
ATOM      1  C   UNL     1       5.375  -0.247   6.050  0.00  0.00    +0.000 A 
ATOM      2  C   UNL     1       4.804   0.899   5.564  0.00  0.00    +0.000 A 
ATOM      3  C   UNL     1       4.235   0.915   4.295  0.00  0.00    +0.000 A 
ATOM      4  C   UNL     1       4.182  -0.208   3.516  0.00  0.00    +0.000 A 
ATOM      5  C   UNL     1       4.754  -1.384   4.035  0.00  0.00    +0.000 A 
ATOM      6  C   UNL     1       5.345  -1.413   5.249  0.00  0.00    +0.000 A 
ENDROOT
BRANCH   1   8
ATOM      7  C   UNL     1       5.247   0.352   8.398  0.00  0.00    +0.000 C 
ATOM      8  O   UNL     1       5.942  -0.242   7.337  0.00  0.00    +0.000 OA
ENDBRANCH   1   8
BRANCH   4   9
ATOM      9  C   UNL     1       3.595  -0.194   2.135  0.00  0.00    +0.000 C 
ATOM     10  O   UNL     1       4.339  -0.148   1.166  0.00  0.00    +0.000 OA
BRANCH   9  11
ATOM     11  C   UNL     1       2.110  -0.218   1.887  0.00  0.00    +0.000 A 
ATOM     12  C   UNL     1       1.642  -0.169   0.601  0.00  0.00    +0.000 A 
ATOM     13  C   UNL     1       0.285  -0.163   0.399  0.00  0.00    +0.000 A 
ATOM     14  C   UNL     1      -0.555  -0.334   1.452  0.00  0.00    +0.000 A 
ATOM     15  C   UNL     1      -0.090  -0.467   2.780  0.00  0.00    +0.000 A 
ATOM     16  C   UNL     1       1.278  -0.369   2.961  0.00  0.00    +0.000 A 
ENDBRANCH   9  11
ENDBRANCH   4   9
BRANCH   5  17
ATOM     17  O   UNL     1       4.746  -2.481   3.178  0.00  0.00    +0.000 OA
ATOM     18  H   UNL     1       4.089  -3.210   3.313  0.00  0.00    +0.000 HD
ENDBRANCH   5  17
TORSDOF 4
ENDMDL
MODEL 2
REMARK VINA RESULT:      -5.0      2.219      3.465
REMARK  Name = bgox31_3_ligand
REMARK  5 active torsions:
REMARK  status: ('A' for Active; 'I' for Inactive)
REMARK    1  A    between atoms: C_1  and  O_2
REMARK    2  A    between atoms: O_2  and  C_3
REMARK    3  A    between atoms: C_6  and  C_7
REMARK    4  A    between atoms: C_7  and  C_9
REMARK    5  A    between atoms: C_15  and  O_16
REMARK                            x       y       z     vdW  Elec       q    Type
REMARK                         _______ _______ _______ _____ _____    ______ ____
ROOT
ATOM      1  C   UNL     1       7.114  -2.650   2.983  0.00  0.00    +0.000 A 
ATOM      2  C   UNL     1       6.056  -2.956   3.796  0.00  0.00    +0.000 A 
ATOM      3  C   UNL     1       4.981  -2.081   3.907  0.00  0.00    +0.000 A 
ATOM      4  C   UNL     1       4.917  -0.923   3.184  0.00  0.00    +0.000 A 
ATOM      5  C   UNL     1       6.001  -0.629   2.336  0.00  0.00    +0.000 A 
ATOM      6  C   UNL     1       7.073  -1.446   2.241  0.00  0.00    +0.000 A 
ENDROOT
BRANCH   1   8
ATOM      7  C   UNL     1       8.492  -4.392   3.959  0.00  0.00    +0.000 C 
ATOM      8  O   UNL     1       8.190  -3.550   2.882  0.00  0.00    +0.000 OA
ENDBRANCH   1   8
BRANCH   4   9
ATOM      9  C   UNL     1       3.774   0.041   3.317  0.00  0.00    +0.000 C 
ATOM     10  O   UNL     1       3.929   1.071   3.958  0.00  0.00    +0.000 OA
BRANCH   9  11
ATOM     11  C   UNL     1       2.424  -0.217   2.704  0.00  0.00    +0.000 A 
ATOM     12  C   UNL     1       1.324  -0.313   3.515  0.00  0.00    +0.000 A 
ATOM     13  C   UNL     1       0.107  -0.576   2.939  0.00  0.00    +0.000 A 
ATOM     14  C   UNL     1      -0.006  -0.608   1.587  0.00  0.00    +0.000 A 
ATOM     15  C   UNL     1       1.102  -0.432   0.727  0.00  0.00    +0.000 A 
ATOM     16  C   UNL     1       2.332  -0.268   1.342  0.00  0.00    +0.000 A 
ENDBRANCH   9  11
ENDBRANCH   4   9
BRANCH   5  17
ATOM     17  O   UNL     1       5.930   0.596   1.679  0.00  0.00    +0.000 OA
ATOM     18  H   UNL     1       5.330   1.306   2.018  0.00  0.00    +0.000 HD
ENDBRANCH   5  17
TORSDOF 4
ENDMDL
MODEL 3
REMARK VINA RESULT:      -4.9      1.379      1.980
REMARK  Name = bgox31_3_ligand
REMARK  5 active torsions:
REMARK  status: ('A' for Active; 'I' for Inactive)
REMARK    1  A    between atoms: C_1  and  O_2
REMARK    2  A    between atoms: O_2  and  C_3
REMARK    3  A    between atoms: C_6  and  C_7
REMARK    4  A    between atoms: C_7  and  C_9
REMARK    5  A    between atoms: C_15  and  O_16
REMARK                            x       y       z     vdW  Elec       q    Type
REMARK                         _______ _______ _______ _____ _____    ______ ____
ROOT
ATOM      1  C   UNL     1       5.083   2.132   6.055  0.00  0.00    +0.000 A 
ATOM      2  C   UNL     1       4.647   2.698   4.887  0.00  0.00    +0.000 A 
ATOM      3  C   UNL     1       4.214   1.896   3.837  0.00  0.00    +0.000 A 
ATOM      4  C   UNL     1       4.161   0.533   3.947  0.00  0.00    +0.000 A 
ATOM      5  C   UNL     1       4.592  -0.035   5.159  0.00  0.00    +0.000 A 
ATOM      6  C   UNL     1       5.052   0.723   6.178  0.00  0.00    +0.000 A 
ENDROOT
BRANCH   1   8
ATOM      7  C   UNL     1       5.783   2.408   8.362  0.00  0.00    +0.000 C 
ATOM      8  O   UNL     1       5.514   2.963   7.105  0.00  0.00    +0.000 OA
ENDBRANCH   1   8
BRANCH   4   9
ATOM      9  C   UNL     1       3.720  -0.343   2.811  0.00  0.00    +0.000 C 
ATOM     10  O   UNL     1       4.540  -1.055   2.249  0.00  0.00    +0.000 OA
BRANCH   9  11
ATOM     11  C   UNL     1       2.299  -0.370   2.315  0.00  0.00    +0.000 A 
ATOM     12  C   UNL     1       1.272  -0.393   3.220  0.00  0.00    +0.000 A 
ATOM     13  C   UNL     1      -0.015  -0.446   2.747  0.00  0.00    +0.000 A 
ATOM     14  C   UNL     1      -0.248  -0.345   1.414  0.00  0.00    +0.000 A 
ATOM     15  C   UNL     1       0.794  -0.239   0.466  0.00  0.00    +0.000 A 
ATOM     16  C   UNL     1       2.083  -0.289   0.968  0.00  0.00    +0.000 A 
ENDBRANCH   9  11
ENDBRANCH   4   9
BRANCH   5  17
ATOM     17  O   UNL     1       4.593  -1.427   5.199  0.00  0.00    +0.000 OA
ATOM     18  H   UNL     1       4.391  -1.898   6.046  0.00  0.00    +0.000 HD
ENDBRANCH   5  17
TORSDOF 4
ENDMDL
MODEL 4
REMARK VINA RESULT:      -4.8      2.401      3.384
REMARK  Name = bgox31_3_ligand
REMARK  5 active torsions:
REMARK  status: ('A' for Active; 'I' for Inactive)
REMARK    1  A    between atoms: C_1  and  O_2
REMARK    2  A    between atoms: O_2  and  C_3
REMARK    3  A    between atoms: C_6  and  C_7
REMARK    4  A    between atoms: C_7  and  C_9
REMARK    5  A    between atoms: C_15  and  O_16
REMARK                            x       y       z     vdW  Elec       q    Type
REMARK                         _______ _______ _______ _____ _____    ______ ____
ROOT
ATOM      1  C   UNL     1       7.391  -0.408   1.727  0.00  0.00    +0.000 A 
ATOM      2  C   UNL     1       6.765   0.782   1.986  0.00  0.00    +0.000 A 
ATOM      3  C   UNL     1       5.510   0.799   2.585  0.00  0.00    +0.000 A 
ATOM      4  C   UNL     1       4.884  -0.353   2.977  0.00  0.00    +0.000 A 
ATOM      5  C   UNL     1       5.547  -1.568   2.725  0.00  0.00    +0.000 A 
ATOM      6  C   UNL     1       6.750  -1.609   2.110  0.00  0.00    +0.000 A 
ENDROOT
BRANCH   1   8
ATOM      7  C   UNL     1       9.613  -1.356   1.500  0.00  0.00    +0.000 C 
ATOM      8  O   UNL     1       8.662  -0.400   1.124  0.00  0.00    +0.000 OA
ENDBRANCH   1   8
BRANCH   4   9
ATOM      9  C   UNL     1       3.519  -0.348   3.599  0.00  0.00    +0.000 C 
ATOM     10  O   UNL     1       3.413  -0.374   4.817  0.00  0.00    +0.000 OA
BRANCH   9  11
ATOM     11  C   UNL     1       2.257  -0.329   2.779  0.00  0.00    +0.000 A 
ATOM     12  C   UNL     1       2.342  -0.379   1.412  0.00  0.00    +0.000 A 
ATOM     13  C   UNL     1       1.182  -0.332   0.682  0.00  0.00    +0.000 A 
ATOM     14  C   UNL     1      -0.017  -0.369   1.319  0.00  0.00    +0.000 A 
ATOM     15  C   UNL     1      -0.129  -0.399   2.727  0.00  0.00    +0.000 A 
ATOM     16  C   UNL     1       1.059  -0.344   3.435  0.00  0.00    +0.000 A 
ENDBRANCH   9  11
ENDBRANCH   4   9
BRANCH   5  17
ATOM     17  O   UNL     1       4.841  -2.716   3.070  0.00  0.00    +0.000 OA
ATOM     18  H   UNL     1       4.194  -2.693   3.818  0.00  0.00    +0.000 HD
ENDBRANCH   5  17
TORSDOF 4
ENDMDL
MODEL 5
REMARK VINA RESULT:      -4.6      1.809      2.755
REMARK  Name = bgox31_3_ligand
REMARK  5 active torsions:
REMARK  status: ('A' for Active; 'I' for Inactive)
REMARK    1  A    between atoms: C_1  and  O_2
REMARK    2  A    between atoms: O_2  and  C_3
REMARK    3  A    between atoms: C_6  and  C_7
REMARK    4  A    between atoms: C_7  and  C_9
REMARK    5  A    between atoms: C_15  and  O_16
REMARK                            x       y       z     vdW  Elec       q    Type
REMARK                         _______ _______ _______ _____ _____    ______ ____
ROOT
ATOM      1  C   UNL     1       5.805  -0.040   7.595  0.00  0.00    +0.000 A 
ATOM      2  C   UNL     1       4.540  -0.480   7.308  0.00  0.00    +0.000 A 
ATOM      3  C   UNL     1       4.238  -0.968   6.041  0.00  0.00    +0.000 A 
ATOM      4  C   UNL     1       5.188  -1.070   5.063  0.00  0.00    +0.000 A 
ATOM      5  C   UNL     1       6.488  -0.634   5.376  0.00  0.00    +0.000 A 
ATOM      6  C   UNL     1       6.796  -0.121   6.589  0.00  0.00    +0.000 A 
ENDROOT
BRANCH   1   8
ATOM      7  C   UNL     1       5.392   1.555   9.376  0.00  0.00    +0.000 C 
ATOM      8  O   UNL     1       6.090   0.446   8.883  0.00  0.00    +0.000 OA
ENDBRANCH   1   8
BRANCH   4   9
ATOM      9  C   UNL     1       4.866  -1.569   3.685  0.00  0.00    +0.000 C 
ATOM     10  O   UNL     1       5.119  -2.729   3.392  0.00  0.00    +0.000 OA
BRANCH   9  11
ATOM     11  C   UNL     1       4.253  -0.688   2.630  0.00  0.00    +0.000 A 
ATOM     12  C   UNL     1       5.059   0.134   1.889  0.00  0.00    +0.000 A 
ATOM     13  C   UNL     1       4.477   0.950   0.952  0.00  0.00    +0.000 A 
ATOM     14  C   UNL     1       3.151   0.835   0.688  0.00  0.00    +0.000 A 
ATOM     15  C   UNL     1       2.313  -0.065   1.385  0.00  0.00    +0.000 A 
ATOM     16  C   UNL     1       2.912  -0.801   2.393  0.00  0.00    +0.000 A 
ENDBRANCH   9  11
ENDBRANCH   4   9
BRANCH   5  17
ATOM     17  O   UNL     1       7.404  -0.684   4.329  0.00  0.00    +0.000 OA
ATOM     18  H   UNL     1       8.351  -0.908   4.510  0.00  0.00    +0.000 HD
ENDBRANCH   5  17
TORSDOF 4
ENDMDL
MODEL 6
REMARK VINA RESULT:      -4.4      1.539      2.201
REMARK  Name = bgox31_3_ligand
REMARK  5 active torsions:
REMARK  status: ('A' for Active; 'I' for Inactive)
REMARK    1  A    between atoms: C_1  and  O_2
REMARK    2  A    between atoms: O_2  and  C_3
REMARK    3  A    between atoms: C_6  and  C_7
REMARK    4  A    between atoms: C_7  and  C_9
REMARK    5  A    between atoms: C_15  and  O_16
REMARK                            x       y       z     vdW  Elec       q    Type
REMARK                         _______ _______ _______ _____ _____    ______ ____
ROOT
ATOM      1  C   UNL     1       5.111   1.800   6.250  0.00  0.00    +0.000 A 
ATOM      2  C   UNL     1       5.029   0.433   6.241  0.00  0.00    +0.000 A 
ATOM      3  C   UNL     1       4.605  -0.237   5.098  0.00  0.00    +0.000 A 
ATOM      4  C   UNL     1       4.307   0.430   3.942  0.00  0.00    +0.000 A 
ATOM      5  C   UNL     1       4.415   1.833   3.958  0.00  0.00    +0.000 A 
ATOM      6  C   UNL     1       4.788   2.506   5.068  0.00  0.00    +0.000 A 
ENDROOT
BRANCH   1   8
ATOM      7  C   UNL     1       6.345   3.600   7.311  0.00  0.00    +0.000 C 
ATOM      8  O   UNL     1       5.545   2.456   7.416  0.00  0.00    +0.000 OA
ENDBRANCH   1   8
BRANCH   4   9
ATOM      9  C   UNL     1       3.823  -0.280   2.712  0.00  0.00    +0.000 C 
ATOM     10  O   UNL     1       4.629  -0.859   1.996  0.00  0.00    +0.000 OA
BRANCH   9  11
ATOM     11  C   UNL     1       2.374  -0.298   2.306  0.00  0.00    +0.000 A 
ATOM     12  C   UNL     1       2.049  -0.319   0.975  0.00  0.00    +0.000 A 
ATOM     13  C   UNL     1       0.722  -0.306   0.626  0.00  0.00    +0.000 A 
ATOM     14  C   UNL     1      -0.230  -0.402   1.589  0.00  0.00    +0.000 A 
ATOM     15  C   UNL     1       0.085  -0.461   2.966  0.00  0.00    +0.000 A 
ATOM     16  C   UNL     1       1.428  -0.371   3.289  0.00  0.00    +0.000 A 
ENDBRANCH   9  11
ENDBRANCH   4   9
BRANCH   5  17
ATOM     17  O   UNL     1       4.028   2.475   2.785  0.00  0.00    +0.000 OA
ATOM     18  H   UNL     1       3.737   3.421   2.812  0.00  0.00    +0.000 HD
ENDBRANCH   5  17
TORSDOF 4
ENDMDL
MODEL 7
REMARK VINA RESULT:      -4.4      1.915      6.122
REMARK  Name = bgox31_3_ligand
REMARK  5 active torsions:
REMARK  status: ('A' for Active; 'I' for Inactive)
REMARK    1  A    between atoms: C_1  and  O_2
REMARK    2  A    between atoms: O_2  and  C_3
REMARK    3  A    between atoms: C_6  and  C_7
REMARK    4  A    between atoms: C_7  and  C_9
REMARK    5  A    between atoms: C_15  and  O_16
REMARK                            x       y       z     vdW  Elec       q    Type
REMARK                         _______ _______ _______ _____ _____    ______ ____
ROOT
ATOM      1  C   UNL     1       1.297  -0.173   0.664  0.00  0.00    +0.000 A 
ATOM      2  C   UNL     1       0.904  -0.660   1.882  0.00  0.00    +0.000 A 
ATOM      3  C   UNL     1       1.778  -0.634   2.963  0.00  0.00    +0.000 A 
ATOM      4  C   UNL     1       3.027  -0.085   2.866  0.00  0.00    +0.000 A 
ATOM      5  C   UNL     1       3.412   0.430   1.614  0.00  0.00    +0.000 A 
ATOM      6  C   UNL     1       2.592   0.381   0.541  0.00  0.00    +0.000 A 
ENDROOT
BRANCH   1   8
ATOM      7  C   UNL     1       0.711   0.462  -1.604  0.00  0.00    +0.000 C 
ATOM      8  O   UNL     1       0.395  -0.207  -0.415  0.00  0.00    +0.000 OA
ENDBRANCH   1   8
BRANCH   4   9
ATOM      9  C   UNL     1       3.988  -0.076   4.018  0.00  0.00    +0.000 C 
ATOM     10  O   UNL     1       3.799   0.690   4.952  0.00  0.00    +0.000 OA
BRANCH   9  11
ATOM     11  C   UNL     1       5.199  -0.969   4.067  0.00  0.00    +0.000 A 
ATOM     12  C   UNL     1       5.110  -2.250   3.592  0.00  0.00    +0.000 A 
ATOM     13  C   UNL     1       6.217  -3.056   3.672  0.00  0.00    +0.000 A 
ATOM     14  C   UNL     1       7.399  -2.539   4.094  0.00  0.00    +0.000 A 
ATOM     15  C   UNL     1       7.533  -1.196   4.514  0.00  0.00    +0.000 A 
ATOM     16  C   UNL     1       6.375  -0.438   4.516  0.00  0.00    +0.000 A 
ENDBRANCH   9  11
ENDBRANCH   4   9
BRANCH   5  17
ATOM     17  O   UNL     1       4.717   0.908   1.540  0.00  0.00    +0.000 OA
ATOM     18  H   UNL     1       5.205   1.144   2.368  0.00  0.00    +0.000 HD
ENDBRANCH   5  17
TORSDOF 4
ENDMDL
MODEL 8
REMARK VINA RESULT:      -4.4      1.515      5.937
REMARK  Name = bgox31_3_ligand
REMARK  5 active torsions:
REMARK  status: ('A' for Active; 'I' for Inactive)
REMARK    1  A    between atoms: C_1  and  O_2
REMARK    2  A    between atoms: O_2  and  C_3
REMARK    3  A    between atoms: C_6  and  C_7
REMARK    4  A    between atoms: C_7  and  C_9
REMARK    5  A    between atoms: C_15  and  O_16
REMARK                            x       y       z     vdW  Elec       q    Type
REMARK                         _______ _______ _______ _____ _____    ______ ____
ROOT
ATOM      1  C   UNL     1       0.894  -0.141   0.888  0.00  0.00    +0.000 A 
ATOM      2  C   UNL     1       0.633  -0.585   2.157  0.00  0.00    +0.000 A 
ATOM      3  C   UNL     1       1.673  -0.774   3.061  0.00  0.00    +0.000 A 
ATOM      4  C   UNL     1       2.969  -0.480   2.739  0.00  0.00    +0.000 A 
ATOM      5  C   UNL     1       3.221  -0.005   1.439  0.00  0.00    +0.000 A 
ATOM      6  C   UNL     1       2.232   0.149   0.532  0.00  0.00    +0.000 A 
ENDROOT
BRANCH   1   8
ATOM      7  C   UNL     1       0.093   0.365  -1.346  0.00  0.00    +0.000 C 
ATOM      8  O   UNL     1      -0.173   0.045  -0.009  0.00  0.00    +0.000 OA
ENDBRANCH   1   8
BRANCH   4   9
ATOM      9  C   UNL     1       4.101  -0.705   3.698  0.00  0.00    +0.000 C 
ATOM     10  O   UNL     1       4.729  -1.753   3.652  0.00  0.00    +0.000 OA
BRANCH   9  11
ATOM     11  C   UNL     1       4.490   0.308   4.741  0.00  0.00    +0.000 A 
ATOM     12  C   UNL     1       4.344   1.643   4.469  0.00  0.00    +0.000 A 
ATOM     13  C   UNL     1       4.732   2.551   5.422  0.00  0.00    +0.000 A 
ATOM     14  C   UNL     1       5.124   2.117   6.646  0.00  0.00    +0.000 A 
ATOM     15  C   UNL     1       5.207   0.745   6.976  0.00  0.00    +0.000 A 
ATOM     16  C   UNL     1       4.905  -0.146   5.961  0.00  0.00    +0.000 A 
ENDBRANCH   9  11
ENDBRANCH   4   9
BRANCH   5  17
ATOM     17  O   UNL     1       4.562   0.206   1.130  0.00  0.00    +0.000 OA
ATOM     18  H   UNL     1       5.259  -0.374   1.527  0.00  0.00    +0.000 HD
ENDBRANCH   5  17
TORSDOF 4
ENDMDL
MODEL 9
REMARK VINA RESULT:      -4.4      2.289      5.852
REMARK  Name = bgox31_3_ligand
REMARK  5 active torsions:
REMARK  status: ('A' for Active; 'I' for Inactive)
REMARK    1  A    between atoms: C_1  and  O_2
REMARK    2  A    between atoms: O_2  and  C_3
REMARK    3  A    between atoms: C_6  and  C_7
REMARK    4  A    between atoms: C_7  and  C_9
REMARK    5  A    between atoms: C_15  and  O_16
REMARK                            x       y       z     vdW  Elec       q    Type
REMARK                         _______ _______ _______ _____ _____    ______ ____
ROOT
ATOM      1  C   UNL     1       4.062   1.549   0.428  0.00  0.00    +0.000 A 
ATOM      2  C   UNL     1       5.312   1.495   0.985  0.00  0.00    +0.000 A 
ATOM      3  C   UNL     1       5.594   0.571   1.986  0.00  0.00    +0.000 A 
ATOM      4  C   UNL     1       4.664  -0.337   2.410  0.00  0.00    +0.000 A 
ATOM      5  C   UNL     1       3.390  -0.285   1.815  0.00  0.00    +0.000 A 
ATOM      6  C   UNL     1       3.083   0.629   0.868  0.00  0.00    +0.000 A 
ENDROOT
BRANCH   1   8
ATOM      7  C   UNL     1       4.600   3.633  -0.694  0.00  0.00    +0.000 C 
ATOM      8  O   UNL     1       3.800   2.489  -0.585  0.00  0.00    +0.000 OA
ENDBRANCH   1   8
BRANCH   4   9
ATOM      9  C   UNL     1       4.950  -1.320   3.508  0.00  0.00    +0.000 C 
ATOM     10  O   UNL     1       4.958  -2.516   3.256  0.00  0.00    +0.000 OA
BRANCH   9  11
ATOM     11  C   UNL     1       5.213  -0.892   4.927  0.00  0.00    +0.000 A 
ATOM     12  C   UNL     1       4.207  -0.977   5.852  0.00  0.00    +0.000 A 
ATOM     13  C   UNL     1       4.459  -0.556   7.134  0.00  0.00    +0.000 A 
ATOM     14  C   UNL     1       5.718  -0.190   7.487  0.00  0.00    +0.000 A 
ATOM     15  C   UNL     1       6.790  -0.171   6.568  0.00  0.00    +0.000 A 
ATOM     16  C   UNL     1       6.480  -0.506   5.261  0.00  0.00    +0.000 A 
ENDBRANCH   9  11
ENDBRANCH   4   9
BRANCH   5  17
ATOM     17  O   UNL     1       2.453  -1.175   2.331  0.00  0.00    +0.000 OA
ATOM     18  H   UNL     1       1.756  -0.853   2.956  0.00  0.00    +0.000 HD
ENDBRANCH   5  17
TORSDOF 4
ENDMDL
