REMARK  Name = s3_esm2_f4_ligand
REMARK  12 active torsions:
REMARK  status: ('A' for Active; 'I' for Inactive)
REMARK    1  A    between atoms: C_1  and  C_2
REMARK    2  A    between atoms: C_2  and  C_3
REMARK    3  A    between atoms: C_3  and  C_4
REMARK    4  A    between atoms: C_4  and  C_5
REMARK    5  A    between atoms: C_5  and  C_6
REMARK    6  A    between atoms: C_5  and  O_8
REMARK    7  A    between atoms: C_6  and  C_7
REMARK    8  A    between atoms: O_8  and  C_9
REMARK    9  A    between atoms: C_9  and  C_11
REMARK   10  A    between atoms: C_12  and  C_13
REMARK   11  A    between atoms: C_16  and  O_17
REMARK   12  A    between atoms: O_17  and  C_18
REMARK                            x       y       z     vdW  Elec       q    Type
REMARK                         _______ _______ _______ _____ _____    ______ ____
ROOT
ATOM      1  C   UNL     1       6.344  -3.132  -6.617  0.00  0.00    +0.000 C 
ATOM      2  O   UNL     1       6.575  -3.704  -7.647  0.00  0.00    +0.000 OA
ENDROOT
BRANCH   1   3
ATOM      3  C   UNL     1       6.482  -3.762  -5.307  0.00  0.00    +0.000 C 
ATOM      4  C   UNL     1       6.484  -3.035  -4.196  0.00  0.00    +0.000 C 
BRANCH   4   5
ATOM      5  C   UNL     1       6.411  -3.621  -2.840  0.00  0.00    +0.000 A 
ATOM      6  C   UNL     1       6.077  -4.946  -2.649  0.00  0.00    +0.000 A 
ATOM      7  C   UNL     1       5.984  -5.457  -1.367  0.00  0.00    +0.000 A 
ATOM      8  C   UNL     1       6.214  -4.667  -0.281  0.00  0.00    +0.000 A 
ATOM      9  C   UNL     1       6.554  -3.344  -0.470  0.00  0.00    +0.000 A 
ATOM     10  C   UNL     1       6.651  -2.831  -1.747  0.00  0.00    +0.000 A 
BRANCH   8  11
ATOM     11  O   UNL     1       6.102  -5.200   0.955  0.00  0.00    +0.000 OA
ATOM     12  C   UNL     1       5.998  -4.349   2.084  0.00  0.00    +0.000 C 
ENDBRANCH   8  11
ENDBRANCH   4   5
ENDBRANCH   1   3
BRANCH   1  13
ATOM     13  O   UNL     1       5.905  -1.847  -6.592  0.00  0.00    +0.000 OA
BRANCH  13  14
ATOM     14  C   UNL     1       5.426  -1.259  -7.787  0.00  0.00    +0.000 C 
BRANCH  14  15
ATOM     15  C   UNL     1       4.097  -0.586  -7.540  0.00  0.00    +0.000 C 
ATOM     16  C   UNL     1       3.379  -1.060  -6.311  0.00  0.00    +0.000 C 
ENDBRANCH  14  15
BRANCH  14  17
ATOM     17  C   UNL     1       6.434  -0.228  -8.277  0.00  0.00    +0.000 C 
BRANCH  17  18
ATOM     18  C   UNL     1       7.296  -0.779  -9.377  0.00  0.00    +0.000 C 
BRANCH  18  20
ATOM     19  C   UNL     1       8.909  -0.246 -11.210  0.00  0.00    +0.000 C 
ATOM     20  C   UNL     1       8.084   0.317 -10.049  0.00  0.00    +0.000 C 
ENDBRANCH  18  20
ENDBRANCH  17  18
ENDBRANCH  14  17
ENDBRANCH  13  14
ENDBRANCH   1  13
TORSDOF 9
