MODEL 1
REMARK VINA RESULT:      -4.5      0.000      0.000
REMARK  Name = s3_esm2_f4_ligand
REMARK  12 active torsions:
REMARK  status: ('A' for Active; 'I' for Inactive)
REMARK    1  A    between atoms: C_1  and  C_2
REMARK    2  A    between atoms: C_2  and  C_3
REMARK    3  A    between atoms: C_3  and  C_4
REMARK    4  A    between atoms: C_4  and  C_5
REMARK    5  A    between atoms: C_5  and  C_6
REMARK    6  A    between atoms: C_5  and  O_8
REMARK    7  A    between atoms: C_6  and  C_7
REMARK    8  A    between atoms: O_8  and  C_9
REMARK    9  A    between atoms: C_9  and  C_11
REMARK   10  A    between atoms: C_12  and  C_13
REMARK   11  A    between atoms: C_16  and  O_17
REMARK   12  A    between atoms: O_17  and  C_18
REMARK                            x       y       z     vdW  Elec       q    Type
REMARK                         _______ _______ _______ _____ _____    ______ ____
ROOT
ATOM      1  C   UNL     1       1.060   5.452  -6.851  0.00  0.00    +0.000 C 
ATOM      2  O   UNL     1       1.130   6.471  -7.483  0.00  0.00    +0.000 OA
ENDROOT
BRANCH   1   3
ATOM      3  C   UNL     1       1.678   4.202  -7.283  0.00  0.00    +0.000 C 
ATOM      4  C   UNL     1       2.991   4.024  -7.200  0.00  0.00    +0.000 C 
BRANCH   4   5
ATOM      5  C   UNL     1       3.651   2.720  -7.422  0.00  0.00    +0.000 A 
ATOM      6  C   UNL     1       3.498   2.032  -8.609  0.00  0.00    +0.000 A 
ATOM      7  C   UNL     1       4.101   0.798  -8.775  0.00  0.00    +0.000 A 
ATOM      8  C   UNL     1       4.845   0.244  -7.777  0.00  0.00    +0.000 A 
ATOM      9  C   UNL     1       5.004   0.932  -6.593  0.00  0.00    +0.000 A 
ATOM     10  C   UNL     1       4.407   2.164  -6.424  0.00  0.00    +0.000 A 
BRANCH   8  11
ATOM     11  O   UNL     1       5.408  -0.968  -7.974  0.00  0.00    +0.000 OA
ATOM     12  C   UNL     1       4.585  -2.104  -8.182  0.00  0.00    +0.000 C 
ENDBRANCH   8  11
ENDBRANCH   4   5
ENDBRANCH   1   3
BRANCH   1  13
ATOM     13  O   UNL     1       0.369   5.378  -5.684  0.00  0.00    +0.000 OA
BRANCH  13  14
ATOM     14  C   UNL     1       0.641   6.317  -4.661  0.00  0.00    +0.000 C 
BRANCH  14  15
ATOM     15  C   UNL     1      -0.251   6.062  -3.469  0.00  0.00    +0.000 C 
ATOM     16  C   UNL     1      -1.324   5.039  -3.703  0.00  0.00    +0.000 C 
ENDBRANCH  14  15
BRANCH  14  17
ATOM     17  C   UNL     1       2.099   6.191  -4.239  0.00  0.00    +0.000 C 
BRANCH  17  18
ATOM     18  C   UNL     1       2.277   5.145  -3.176  0.00  0.00    +0.000 C 
BRANCH  18  20
ATOM     19  C   UNL     1       3.586   3.153  -2.425  0.00  0.00    +0.000 C 
ATOM     20  C   UNL     1       3.434   4.234  -3.499  0.00  0.00    +0.000 C 
ENDBRANCH  18  20
ENDBRANCH  17  18
ENDBRANCH  14  17
ENDBRANCH  13  14
ENDBRANCH   1  13
TORSDOF 9
ENDMDL
MODEL 2
REMARK VINA RESULT:      -4.5      3.697      4.950
REMARK  Name = s3_esm2_f4_ligand
REMARK  12 active torsions:
REMARK  status: ('A' for Active; 'I' for Inactive)
REMARK    1  A    between atoms: C_1  and  C_2
REMARK    2  A    between atoms: C_2  and  C_3
REMARK    3  A    between atoms: C_3  and  C_4
REMARK    4  A    between atoms: C_4  and  C_5
REMARK    5  A    between atoms: C_5  and  C_6
REMARK    6  A    between atoms: C_5  and  O_8
REMARK    7  A    between atoms: C_6  and  C_7
REMARK    8  A    between atoms: O_8  and  C_9
REMARK    9  A    between atoms: C_9  and  C_11
REMARK   10  A    between atoms: C_12  and  C_13
REMARK   11  A    between atoms: C_16  and  O_17
REMARK   12  A    between atoms: O_17  and  C_18
REMARK                            x       y       z     vdW  Elec       q    Type
REMARK                         _______ _______ _______ _____ _____    ______ ____
ROOT
ATOM      1  C   UNL     1      -0.712   6.197  -3.904  0.00  0.00    +0.000 C 
ATOM      2  O   UNL     1      -1.850   5.837  -4.036  0.00  0.00    +0.000 OA
ENDROOT
BRANCH   1   3
ATOM      3  C   UNL     1       0.120   6.635  -5.022  0.00  0.00    +0.000 C 
ATOM      4  C   UNL     1       0.622   5.759  -5.884  0.00  0.00    +0.000 C 
BRANCH   4   5
ATOM      5  C   UNL     1       1.293   6.150  -7.143  0.00  0.00    +0.000 A 
ATOM      6  C   UNL     1       0.755   7.113  -7.972  0.00  0.00    +0.000 A 
ATOM      7  C   UNL     1       1.387   7.434  -9.160  0.00  0.00    +0.000 A 
ATOM      8  C   UNL     1       2.539   6.806  -9.530  0.00  0.00    +0.000 A 
ATOM      9  C   UNL     1       3.081   5.847  -8.700  0.00  0.00    +0.000 A 
ATOM     10  C   UNL     1       2.455   5.527  -7.513  0.00  0.00    +0.000 A 
BRANCH   8  11
ATOM     11  O   UNL     1       3.120   7.139 -10.703  0.00  0.00    +0.000 OA
ATOM     12  C   UNL     1       4.531   7.083 -10.833  0.00  0.00    +0.000 C 
ENDBRANCH   8  11
ENDBRANCH   4   5
ENDBRANCH   1   3
BRANCH   1  13
ATOM     13  O   UNL     1      -0.095   6.198  -2.695  0.00  0.00    +0.000 OA
BRANCH  13  14
ATOM     14  C   UNL     1       0.887   7.181  -2.423  0.00  0.00    +0.000 C 
BRANCH  14  15
ATOM     15  C   UNL     1       0.347   8.199  -1.446  0.00  0.00    +0.000 C 
ATOM     16  C   UNL     1       0.260   7.715  -0.029  0.00  0.00    +0.000 C 
ENDBRANCH  14  15
BRANCH  14  17
ATOM     17  C   UNL     1       2.117   6.510  -1.828  0.00  0.00    +0.000 C 
BRANCH  17  18
ATOM     18  C   UNL     1       3.049   6.018  -2.899  0.00  0.00    +0.000 C 
BRANCH  18  20
ATOM     19  C   UNL     1       3.647   4.056  -4.328  0.00  0.00    +0.000 C 
ATOM     20  C   UNL     1       2.984   4.517  -3.026  0.00  0.00    +0.000 C 
ENDBRANCH  18  20
ENDBRANCH  17  18
ENDBRANCH  14  17
ENDBRANCH  13  14
ENDBRANCH   1  13
TORSDOF 9
ENDMDL
MODEL 3
REMARK VINA RESULT:      -4.4      3.795      8.076
REMARK  Name = s3_esm2_f4_ligand
REMARK  12 active torsions:
REMARK  status: ('A' for Active; 'I' for Inactive)
REMARK    1  A    between atoms: C_1  and  C_2
REMARK    2  A    between atoms: C_2  and  C_3
REMARK    3  A    between atoms: C_3  and  C_4
REMARK    4  A    between atoms: C_4  and  C_5
REMARK    5  A    between atoms: C_5  and  C_6
REMARK    6  A    between atoms: C_5  and  O_8
REMARK    7  A    between atoms: C_6  and  C_7
REMARK    8  A    between atoms: O_8  and  C_9
REMARK    9  A    between atoms: C_9  and  C_11
REMARK   10  A    between atoms: C_12  and  C_13
REMARK   11  A    between atoms: C_16  and  O_17
REMARK   12  A    between atoms: O_17  and  C_18
REMARK                            x       y       z     vdW  Elec       q    Type
REMARK                         _______ _______ _______ _____ _____    ______ ____
ROOT
ATOM      1  C   UNL     1      -0.586   6.345  -4.174  0.00  0.00    +0.000 C 
ATOM      2  O   UNL     1      -1.708   5.931  -4.063  0.00  0.00    +0.000 OA
ENDROOT
BRANCH   1   3
ATOM      3  C   UNL     1       0.356   6.406  -3.060  0.00  0.00    +0.000 C 
ATOM      4  C   UNL     1       0.131   7.198  -2.018  0.00  0.00    +0.000 C 
BRANCH   4   5
ATOM      5  C   UNL     1       0.930   7.152  -0.774  0.00  0.00    +0.000 A 
ATOM      6  C   UNL     1       0.394   7.540   0.437  0.00  0.00    +0.000 A 
ATOM      7  C   UNL     1       1.176   7.517   1.577  0.00  0.00    +0.000 A 
ATOM      8  C   UNL     1       2.478   7.120   1.524  0.00  0.00    +0.000 A 
ATOM      9  C   UNL     1       3.014   6.726   0.316  0.00  0.00    +0.000 A 
ATOM     10  C   UNL     1       2.237   6.744  -0.823  0.00  0.00    +0.000 A 
BRANCH   8  11
ATOM     11  O   UNL     1       3.213   7.123   2.658  0.00  0.00    +0.000 OA
ATOM     12  C   UNL     1       3.707   5.902   3.182  0.00  0.00    +0.000 C 
ENDBRANCH   8  11
ENDBRANCH   4   5
ENDBRANCH   1   3
BRANCH   1  13
ATOM     13  O   UNL     1      -0.110   6.820  -5.354  0.00  0.00    +0.000 OA
BRANCH  13  14
ATOM     14  C   UNL     1       1.075   6.264  -5.893  0.00  0.00    +0.000 C 
BRANCH  14  15
ATOM     15  C   UNL     1       0.770   4.952  -6.576  0.00  0.00    +0.000 C 
ATOM     16  C   UNL     1       1.980   4.136  -6.924  0.00  0.00    +0.000 C 
ENDBRANCH  14  15
BRANCH  14  17
ATOM     17  C   UNL     1       1.671   7.236  -6.902  0.00  0.00    +0.000 C 
BRANCH  17  18
ATOM     18  C   UNL     1       0.656   7.658  -7.926  0.00  0.00    +0.000 C 
BRANCH  18  20
ATOM     19  C   UNL     1       2.618   6.971  -9.313  0.00  0.00    +0.000 C 
ATOM     20  C   UNL     1       1.254   7.666  -9.310  0.00  0.00    +0.000 C 
ENDBRANCH  18  20
ENDBRANCH  17  18
ENDBRANCH  14  17
ENDBRANCH  13  14
ENDBRANCH   1  13
TORSDOF 9
ENDMDL
MODEL 4
REMARK VINA RESULT:      -4.4      3.847      7.707
REMARK  Name = s3_esm2_f4_ligand
REMARK  12 active torsions:
REMARK  status: ('A' for Active; 'I' for Inactive)
REMARK    1  A    between atoms: C_1  and  C_2
REMARK    2  A    between atoms: C_2  and  C_3
REMARK    3  A    between atoms: C_3  and  C_4
REMARK    4  A    between atoms: C_4  and  C_5
REMARK    5  A    between atoms: C_5  and  C_6
REMARK    6  A    between atoms: C_5  and  O_8
REMARK    7  A    between atoms: C_6  and  C_7
REMARK    8  A    between atoms: O_8  and  C_9
REMARK    9  A    between atoms: C_9  and  C_11
REMARK   10  A    between atoms: C_12  and  C_13
REMARK   11  A    between atoms: C_16  and  O_17
REMARK   12  A    between atoms: O_17  and  C_18
REMARK                            x       y       z     vdW  Elec       q    Type
REMARK                         _______ _______ _______ _____ _____    ______ ____
ROOT
ATOM      1  C   UNL     1      -0.708   6.030  -4.040  0.00  0.00    +0.000 C 
ATOM      2  O   UNL     1      -1.896   5.857  -4.074  0.00  0.00    +0.000 OA
ENDROOT
BRANCH   1   3
ATOM      3  C   UNL     1       0.067   6.005  -2.803  0.00  0.00    +0.000 C 
ATOM      4  C   UNL     1       0.572   7.121  -2.291  0.00  0.00    +0.000 C 
BRANCH   4   5
ATOM      5  C   UNL     1       1.183   7.195  -0.945  0.00  0.00    +0.000 A 
ATOM      6  C   UNL     1       0.408   7.164   0.196  0.00  0.00    +0.000 A 
ATOM      7  C   UNL     1       1.004   7.269   1.439  0.00  0.00    +0.000 A 
ATOM      8  C   UNL     1       2.355   7.408   1.557  0.00  0.00    +0.000 A 
ATOM      9  C   UNL     1       3.132   7.432   0.418  0.00  0.00    +0.000 A 
ATOM     10  C   UNL     1       2.541   7.325  -0.824  0.00  0.00    +0.000 A 
BRANCH   8  11
ATOM     11  O   UNL     1       2.899   7.519   2.788  0.00  0.00    +0.000 OA
ATOM     12  C   UNL     1       3.651   6.445   3.327  0.00  0.00    +0.000 C 
ENDBRANCH   8  11
ENDBRANCH   4   5
ENDBRANCH   1   3
BRANCH   1  13
ATOM     13  O   UNL     1       0.011   6.293  -5.162  0.00  0.00    +0.000 OA
BRANCH  13  14
ATOM     14  C   UNL     1       1.061   5.417  -5.528  0.00  0.00    +0.000 C 
BRANCH  14  15
ATOM     15  C   UNL     1       0.742   4.742  -6.840  0.00  0.00    +0.000 C 
ATOM     16  C   UNL     1       1.473   5.305  -8.023  0.00  0.00    +0.000 C 
ENDBRANCH  14  15
BRANCH  14  17
ATOM     17  C   UNL     1       2.352   6.213  -5.667  0.00  0.00    +0.000 C 
BRANCH  17  18
ATOM     18  C   UNL     1       3.319   5.894  -4.563  0.00  0.00    +0.000 C 
BRANCH  18  20
ATOM     19  C   UNL     1       3.453   4.283  -2.656  0.00  0.00    +0.000 C 
ATOM     20  C   UNL     1       3.224   4.443  -4.162  0.00  0.00    +0.000 C 
ENDBRANCH  18  20
ENDBRANCH  17  18
ENDBRANCH  14  17
ENDBRANCH  13  14
ENDBRANCH   1  13
TORSDOF 9
ENDMDL
MODEL 5
REMARK VINA RESULT:      -4.4      4.270      5.612
REMARK  Name = s3_esm2_f4_ligand
REMARK  12 active torsions:
REMARK  status: ('A' for Active; 'I' for Inactive)
REMARK    1  A    between atoms: C_1  and  C_2
REMARK    2  A    between atoms: C_2  and  C_3
REMARK    3  A    between atoms: C_3  and  C_4
REMARK    4  A    between atoms: C_4  and  C_5
REMARK    5  A    between atoms: C_5  and  C_6
REMARK    6  A    between atoms: C_5  and  O_8
REMARK    7  A    between atoms: C_6  and  C_7
REMARK    8  A    between atoms: O_8  and  C_9
REMARK    9  A    between atoms: C_9  and  C_11
REMARK   10  A    between atoms: C_12  and  C_13
REMARK   11  A    between atoms: C_16  and  O_17
REMARK   12  A    between atoms: O_17  and  C_18
REMARK                            x       y       z     vdW  Elec       q    Type
REMARK                         _______ _______ _______ _____ _____    ______ ____
ROOT
ATOM      1  C   UNL     1      -0.474   7.161  -3.988  0.00  0.00    +0.000 C 
ATOM      2  O   UNL     1      -1.350   6.343  -3.914  0.00  0.00    +0.000 OA
ENDROOT
BRANCH   1   3
ATOM      3  C   UNL     1       0.223   7.473  -5.232  0.00  0.00    +0.000 C 
ATOM      4  C   UNL     1       0.918   6.544  -5.877  0.00  0.00    +0.000 C 
BRANCH   4   5
ATOM      5  C   UNL     1       1.469   6.737  -7.236  0.00  0.00    +0.000 A 
ATOM      6  C   UNL     1       0.822   7.524  -8.167  0.00  0.00    +0.000 A 
ATOM      7  C   UNL     1       1.344   7.658  -9.441  0.00  0.00    +0.000 A 
ATOM      8  C   UNL     1       2.493   7.019  -9.796  0.00  0.00    +0.000 A 
ATOM      9  C   UNL     1       3.145   6.237  -8.866  0.00  0.00    +0.000 A 
ATOM     10  C   UNL     1       2.629   6.102  -7.593  0.00  0.00    +0.000 A 
BRANCH   8  11
ATOM     11  O   UNL     1       2.965   7.166 -11.053  0.00  0.00    +0.000 OA
ATOM     12  C   UNL     1       4.255   7.716 -11.263  0.00  0.00    +0.000 C 
ENDBRANCH   8  11
ENDBRANCH   4   5
ENDBRANCH   1   3
BRANCH   1  13
ATOM     13  O   UNL     1      -0.040   7.847  -2.900  0.00  0.00    +0.000 OA
BRANCH  13  14
ATOM     14  C   UNL     1       0.711   7.168  -1.911  0.00  0.00    +0.000 C 
BRANCH  14  15
ATOM     15  C   UNL     1       2.147   7.026  -2.353  0.00  0.00    +0.000 C 
ATOM     16  C   UNL     1       2.601   5.609  -2.546  0.00  0.00    +0.000 C 
ENDBRANCH  14  15
BRANCH  14  17
ATOM     17  C   UNL     1       0.656   7.958  -0.610  0.00  0.00    +0.000 C 
BRANCH  17  18
ATOM     18  C   UNL     1       0.289   7.081   0.553  0.00  0.00    +0.000 C 
BRANCH  18  20
ATOM     19  C   UNL     1       1.778   5.659   1.969  0.00  0.00    +0.000 C 
ATOM     20  C   UNL     1       1.373   7.089   1.602  0.00  0.00    +0.000 C 
ENDBRANCH  18  20
ENDBRANCH  17  18
ENDBRANCH  14  17
ENDBRANCH  13  14
ENDBRANCH   1  13
TORSDOF 9
ENDMDL
MODEL 6
REMARK VINA RESULT:      -4.3      3.956      7.896
REMARK  Name = s3_esm2_f4_ligand
REMARK  12 active torsions:
REMARK  status: ('A' for Active; 'I' for Inactive)
REMARK    1  A    between atoms: C_1  and  C_2
REMARK    2  A    between atoms: C_2  and  C_3
REMARK    3  A    between atoms: C_3  and  C_4
REMARK    4  A    between atoms: C_4  and  C_5
REMARK    5  A    between atoms: C_5  and  C_6
REMARK    6  A    between atoms: C_5  and  O_8
REMARK    7  A    between atoms: C_6  and  C_7
REMARK    8  A    between atoms: O_8  and  C_9
REMARK    9  A    between atoms: C_9  and  C_11
REMARK   10  A    between atoms: C_12  and  C_13
REMARK   11  A    between atoms: C_16  and  O_17
REMARK   12  A    between atoms: O_17  and  C_18
REMARK                            x       y       z     vdW  Elec       q    Type
REMARK                         _______ _______ _______ _____ _____    ______ ____
ROOT
ATOM      1  C   UNL     1      -0.730   6.587  -3.896  0.00  0.00    +0.000 C 
ATOM      2  O   UNL     1      -1.743   5.974  -4.097  0.00  0.00    +0.000 OA
ENDROOT
BRANCH   1   3
ATOM      3  C   UNL     1       0.151   6.320  -2.763  0.00  0.00    +0.000 C 
ATOM      4  C   UNL     1       0.562   7.303  -1.970  0.00  0.00    +0.000 C 
BRANCH   4   5
ATOM      5  C   UNL     1       1.278   7.076  -0.697  0.00  0.00    +0.000 A 
ATOM      6  C   UNL     1       2.563   6.574  -0.677  0.00  0.00    +0.000 A 
ATOM      7  C   UNL     1       3.195   6.341   0.532  0.00  0.00    +0.000 A 
ATOM      8  C   UNL     1       2.563   6.596   1.712  0.00  0.00    +0.000 A 
ATOM      9  C   UNL     1       1.281   7.104   1.694  0.00  0.00    +0.000 A 
ATOM     10  C   UNL     1       0.649   7.341   0.491  0.00  0.00    +0.000 A 
BRANCH   8  11
ATOM     11  O   UNL     1       3.209   6.344   2.871  0.00  0.00    +0.000 OA
ATOM     12  C   UNL     1       3.621   7.420   3.698  0.00  0.00    +0.000 C 
ENDBRANCH   8  11
ENDBRANCH   4   5
ENDBRANCH   1   3
BRANCH   1  13
ATOM     13  O   UNL     1      -0.335   7.606  -4.702  0.00  0.00    +0.000 OA
BRANCH  13  14
ATOM     14  C   UNL     1       0.343   7.308  -5.908  0.00  0.00    +0.000 C 
BRANCH  14  15
ATOM     15  C   UNL     1       0.034   8.354  -6.952  0.00  0.00    +0.000 C 
ATOM     16  C   UNL     1       0.817   8.214  -8.224  0.00  0.00    +0.000 C 
ENDBRANCH  14  15
BRANCH  14  17
ATOM     17  C   UNL     1       1.843   7.281  -5.645  0.00  0.00    +0.000 C 
BRANCH  17  18
ATOM     18  C   UNL     1       2.387   5.882  -5.698  0.00  0.00    +0.000 C 
BRANCH  18  20
ATOM     19  C   UNL     1       2.089   4.417  -7.700  0.00  0.00    +0.000 C 
ATOM     20  C   UNL     1       1.441   4.959  -6.423  0.00  0.00    +0.000 C 
ENDBRANCH  18  20
ENDBRANCH  17  18
ENDBRANCH  14  17
ENDBRANCH  13  14
ENDBRANCH   1  13
TORSDOF 9
ENDMDL
MODEL 7
REMARK VINA RESULT:      -4.3      1.740      7.679
REMARK  Name = s3_esm2_f4_ligand
REMARK  12 active torsions:
REMARK  status: ('A' for Active; 'I' for Inactive)
REMARK    1  A    between atoms: C_1  and  C_2
REMARK    2  A    between atoms: C_2  and  C_3
REMARK    3  A    between atoms: C_3  and  C_4
REMARK    4  A    between atoms: C_4  and  C_5
REMARK    5  A    between atoms: C_5  and  C_6
REMARK    6  A    between atoms: C_5  and  O_8
REMARK    7  A    between atoms: C_6  and  C_7
REMARK    8  A    between atoms: O_8  and  C_9
REMARK    9  A    between atoms: C_9  and  C_11
REMARK   10  A    between atoms: C_12  and  C_13
REMARK   11  A    between atoms: C_16  and  O_17
REMARK   12  A    between atoms: O_17  and  C_18
REMARK                            x       y       z     vdW  Elec       q    Type
REMARK                         _______ _______ _______ _____ _____    ______ ____
ROOT
ATOM      1  C   UNL     1       5.391   1.243  -6.539  0.00  0.00    +0.000 C 
ATOM      2  O   UNL     1       6.004   1.257  -7.572  0.00  0.00    +0.000 OA
ENDROOT
BRANCH   1   3
ATOM      3  C   UNL     1       4.550   2.350  -6.096  0.00  0.00    +0.000 C 
ATOM      4  C   UNL     1       3.768   3.000  -6.951  0.00  0.00    +0.000 C 
BRANCH   4   5
ATOM      5  C   UNL     1       2.746   3.984  -6.533  0.00  0.00    +0.000 A 
ATOM      6  C   UNL     1       2.836   4.640  -5.323  0.00  0.00    +0.000 A 
ATOM      7  C   UNL     1       1.847   5.531  -4.945  0.00  0.00    +0.000 A 
ATOM      8  C   UNL     1       0.775   5.769  -5.751  0.00  0.00    +0.000 A 
ATOM      9  C   UNL     1       0.687   5.118  -6.964  0.00  0.00    +0.000 A 
ATOM     10  C   UNL     1       1.672   4.232  -7.346  0.00  0.00    +0.000 A 
BRANCH   8  11
ATOM     11  O   UNL     1      -0.175   6.636  -5.342  0.00  0.00    +0.000 OA
ATOM     12  C   UNL     1      -0.306   6.942  -3.964  0.00  0.00    +0.000 C 
ENDBRANCH   8  11
ENDBRANCH   4   5
ENDBRANCH   1   3
BRANCH   1  13
ATOM     13  O   UNL     1       5.455   0.192  -5.681  0.00  0.00    +0.000 OA
BRANCH  13  14
ATOM     14  C   UNL     1       5.667  -1.108  -6.198  0.00  0.00    +0.000 C 
BRANCH  14  15
ATOM     15  C   UNL     1       6.569  -1.895  -5.277  0.00  0.00    +0.000 C 
ATOM     16  C   UNL     1       6.604  -3.369  -5.551  0.00  0.00    +0.000 C 
ENDBRANCH  14  15
BRANCH  14  17
ATOM     17  C   UNL     1       4.327  -1.821  -6.325  0.00  0.00    +0.000 C 
BRANCH  17  18
ATOM     18  C   UNL     1       3.833  -1.817  -7.743  0.00  0.00    +0.000 C 
BRANCH  18  20
ATOM     19  C   UNL     1       4.849  -3.750  -8.959  0.00  0.00    +0.000 C 
ATOM     20  C   UNL     1       4.920  -2.242  -8.697  0.00  0.00    +0.000 C 
ENDBRANCH  18  20
ENDBRANCH  17  18
ENDBRANCH  14  17
ENDBRANCH  13  14
ENDBRANCH   1  13
TORSDOF 9
ENDMDL
MODEL 8
REMARK VINA RESULT:      -4.3      1.986      7.010
REMARK  Name = s3_esm2_f4_ligand
REMARK  12 active torsions:
REMARK  status: ('A' for Active; 'I' for Inactive)
REMARK    1  A    between atoms: C_1  and  C_2
REMARK    2  A    between atoms: C_2  and  C_3
REMARK    3  A    between atoms: C_3  and  C_4
REMARK    4  A    between atoms: C_4  and  C_5
REMARK    5  A    between atoms: C_5  and  C_6
REMARK    6  A    between atoms: C_5  and  O_8
REMARK    7  A    between atoms: C_6  and  C_7
REMARK    8  A    between atoms: O_8  and  C_9
REMARK    9  A    between atoms: C_9  and  C_11
REMARK   10  A    between atoms: C_12  and  C_13
REMARK   11  A    between atoms: C_16  and  O_17
REMARK   12  A    between atoms: O_17  and  C_18
REMARK                            x       y       z     vdW  Elec       q    Type
REMARK                         _______ _______ _______ _____ _____    ______ ____
ROOT
ATOM      1  C   UNL     1       4.129   1.343  -8.799  0.00  0.00    +0.000 C 
ATOM      2  O   UNL     1       3.852   1.577  -9.944  0.00  0.00    +0.000 OA
ENDROOT
BRANCH   1   3
ATOM      3  C   UNL     1       3.730   2.205  -7.691  0.00  0.00    +0.000 C 
ATOM      4  C   UNL     1       3.061   3.332  -7.907  0.00  0.00    +0.000 C 
BRANCH   4   5
ATOM      5  C   UNL     1       2.451   4.137  -6.827  0.00  0.00    +0.000 A 
ATOM      6  C   UNL     1       3.141   4.417  -5.665  0.00  0.00    +0.000 A 
ATOM      7  C   UNL     1       2.532   5.144  -4.658  0.00  0.00    +0.000 A 
ATOM      8  C   UNL     1       1.251   5.588  -4.793  0.00  0.00    +0.000 A 
ATOM      9  C   UNL     1       0.562   5.314  -5.956  0.00  0.00    +0.000 A 
ATOM     10  C   UNL     1       1.167   4.592  -6.964  0.00  0.00    +0.000 A 
BRANCH   8  11
ATOM     11  O   UNL     1       0.688   6.285  -3.783  0.00  0.00    +0.000 OA
ATOM     12  C   UNL     1       1.410   6.495  -2.582  0.00  0.00    +0.000 C 
ENDBRANCH   8  11
ENDBRANCH   4   5
ENDBRANCH   1   3
BRANCH   1  13
ATOM     13  O   UNL     1       4.867   0.259  -8.446  0.00  0.00    +0.000 OA
BRANCH  13  14
ATOM     14  C   UNL     1       4.553  -0.428  -7.249  0.00  0.00    +0.000 C 
BRANCH  14  15
ATOM     15  C   UNL     1       3.700  -1.637  -7.551  0.00  0.00    +0.000 C 
ATOM     16  C   UNL     1       4.415  -2.736  -8.280  0.00  0.00    +0.000 C 
ENDBRANCH  14  15
BRANCH  14  17
ATOM     17  C   UNL     1       5.843  -0.873  -6.573  0.00  0.00    +0.000 C 
BRANCH  17  18
ATOM     18  C   UNL     1       5.697  -0.915  -5.079  0.00  0.00    +0.000 C 
BRANCH  18  20
ATOM     19  C   UNL     1       4.629  -2.659  -3.641  0.00  0.00    +0.000 C 
ATOM     20  C   UNL     1       5.807  -2.328  -4.563  0.00  0.00    +0.000 C 
ENDBRANCH  18  20
ENDBRANCH  17  18
ENDBRANCH  14  17
ENDBRANCH  13  14
ENDBRANCH   1  13
TORSDOF 9
ENDMDL
MODEL 9
REMARK VINA RESULT:      -4.2      5.016      8.461
REMARK  Name = s3_esm2_f4_ligand
REMARK  12 active torsions:
REMARK  status: ('A' for Active; 'I' for Inactive)
REMARK    1  A    between atoms: C_1  and  C_2
REMARK    2  A    between atoms: C_2  and  C_3
REMARK    3  A    between atoms: C_3  and  C_4
REMARK    4  A    between atoms: C_4  and  C_5
REMARK    5  A    between atoms: C_5  and  C_6
REMARK    6  A    between atoms: C_5  and  O_8
REMARK    7  A    between atoms: C_6  and  C_7
REMARK    8  A    between atoms: O_8  and  C_9
REMARK    9  A    between atoms: C_9  and  C_11
REMARK   10  A    between atoms: C_12  and  C_13
REMARK   11  A    between atoms: C_16  and  O_17
REMARK   12  A    between atoms: O_17  and  C_18
REMARK                            x       y       z     vdW  Elec       q    Type
REMARK                         _______ _______ _______ _____ _____    ______ ____
ROOT
ATOM      1  C   UNL     1       0.730   7.684  -1.076  0.00  0.00    +0.000 C 
ATOM      2  O   UNL     1      -0.195   8.375  -0.747  0.00  0.00    +0.000 OA
ENDROOT
BRANCH   1   3
ATOM      3  C   UNL     1       1.612   7.023  -0.119  0.00  0.00    +0.000 C 
ATOM      4  C   UNL     1       1.303   6.970   1.171  0.00  0.00    +0.000 C 
BRANCH   4   5
ATOM      5  C   UNL     1       2.041   6.144   2.151  0.00  0.00    +0.000 A 
ATOM      6  C   UNL     1       3.166   6.624   2.790  0.00  0.00    +0.000 A 
ATOM      7  C   UNL     1       3.855   5.816   3.677  0.00  0.00    +0.000 A 
ATOM      8  C   UNL     1       3.440   4.543   3.929  0.00  0.00    +0.000 A 
ATOM      9  C   UNL     1       2.313   4.063   3.296  0.00  0.00    +0.000 A 
ATOM     10  C   UNL     1       1.621   4.867   2.413  0.00  0.00    +0.000 A 
BRANCH   8  11
ATOM     11  O   UNL     1       4.146   3.781   4.792  0.00  0.00    +0.000 OA
ATOM     12  C   UNL     1       4.224   2.379   4.595  0.00  0.00    +0.000 C 
ENDBRANCH   8  11
ENDBRANCH   4   5
ENDBRANCH   1   3
BRANCH   1  13
ATOM     13  O   UNL     1       1.047   7.483  -2.382  0.00  0.00    +0.000 OA
BRANCH  13  14
ATOM     14  C   UNL     1       0.955   6.177  -2.920  0.00  0.00    +0.000 C 
BRANCH  14  15
ATOM     15  C   UNL     1      -0.145   6.115  -3.952  0.00  0.00    +0.000 C 
ATOM     16  C   UNL     1      -1.223   5.115  -3.653  0.00  0.00    +0.000 C 
ENDBRANCH  14  15
BRANCH  14  17
ATOM     17  C   UNL     1       2.282   5.810  -3.570  0.00  0.00    +0.000 C 
BRANCH  17  18
ATOM     18  C   UNL     1       2.905   4.611  -2.912  0.00  0.00    +0.000 C 
BRANCH  18  20
ATOM     19  C   UNL     1       3.969   4.198  -0.689  0.00  0.00    +0.000 C 
ATOM     20  C   UNL     1       4.017   5.021  -1.979  0.00  0.00    +0.000 C 
ENDBRANCH  18  20
ENDBRANCH  17  18
ENDBRANCH  14  17
ENDBRANCH  13  14
ENDBRANCH   1  13
TORSDOF 9
ENDMDL
