REMARK  Name = bg33_1_ligand
REMARK  12 active torsions:
REMARK  status: ('A' for Active; 'I' for Inactive)
REMARK    1  A    between atoms: C_1  and  C_2
REMARK    2  A    between atoms: C_2  and  C_3
REMARK    3  A    between atoms: C_3  and  C_4
REMARK    4  A    between atoms: C_4  and  C_5
REMARK    5  A    between atoms: C_5  and  C_6
REMARK    6  A    between atoms: C_5  and  O_8
REMARK    7  A    between atoms: C_6  and  C_7
REMARK    8  A    between atoms: O_8  and  C_9
REMARK    9  A    between atoms: C_9  and  C_11
REMARK   10  A    between atoms: C_12  and  C_13
REMARK   11  A    between atoms: C_16  and  O_17
REMARK   12  A    between atoms: O_17  and  C_18
REMARK                            x       y       z     vdW  Elec       q    Type
REMARK                         _______ _______ _______ _____ _____    ______ ____
ROOT
ATOM      1  C   UNL     1       0.664  -7.654   2.920  0.00  0.00    +0.000 C 
ATOM      2  O   UNL     1       0.031  -7.868   1.921  0.00  0.00    +0.000 OA
ENDROOT
BRANCH   1   3
ATOM      3  C   UNL     1       1.974  -8.149   3.068  0.00  0.00    +0.000 C 
ATOM      4  C   UNL     1       2.230  -9.286   2.597  0.00  0.00    +0.000 C 
BRANCH   4   5
ATOM      5  C   UNL     1       3.413  -9.964   2.796  0.00  0.00    +0.000 A 
ATOM      6  C   UNL     1       4.593  -9.431   2.450  0.00  0.00    +0.000 A 
ATOM      7  C   UNL     1       5.767 -10.084   2.637  0.00  0.00    +0.000 A 
ATOM      8  C   UNL     1       5.707 -11.309   3.234  0.00  0.00    +0.000 A 
ATOM      9  C   UNL     1       4.576 -11.872   3.604  0.00  0.00    +0.000 A 
ATOM     10  C   UNL     1       3.422 -11.210   3.361  0.00  0.00    +0.000 A 
BRANCH   8  11
ATOM     11  O   UNL     1       6.802 -12.002   3.437  0.00  0.00    +0.000 OA
ATOM     12  C   UNL     1       7.012 -12.343   4.765  0.00  0.00    +0.000 C 
ENDBRANCH   8  11
ENDBRANCH   4   5
ENDBRANCH   1   3
BRANCH   1  13
ATOM     13  O   UNL     1       0.147  -6.958   3.875  0.00  0.00    +0.000 OA
BRANCH  13  14
ATOM     14  C   UNL     1      -1.059  -6.662   3.656  0.00  0.00    +0.000 C 
BRANCH  14  15
ATOM     15  C   UNL     1      -1.940  -7.864   3.640  0.00  0.00    +0.000 C 
ATOM     16  C   UNL     1      -1.916  -8.599   4.846  0.00  0.00    +0.000 C 
ENDBRANCH  14  15
BRANCH  14  17
ATOM     17  C   UNL     1      -1.526  -5.506   4.300  0.00  0.00    +0.000 C 
BRANCH  17  18
ATOM     18  C   UNL     1      -0.918  -5.268   5.559  0.00  0.00    +0.000 C 
BRANCH  18  20
ATOM     19  C   UNL     1      -0.100  -3.023   5.135  0.00  0.00    +0.000 C 
ATOM     20  C   UNL     1      -1.182  -3.860   5.779  0.00  0.00    +0.000 C 
ENDBRANCH  18  20
ENDBRANCH  17  18
ENDBRANCH  14  17
ENDBRANCH  13  14
ENDBRANCH   1  13
TORSDOF 9
