MODEL 1
REMARK VINA RESULT:      -3.3      0.000      0.000
REMARK  Name = bg33_1_ligand
REMARK  12 active torsions:
REMARK  status: ('A' for Active; 'I' for Inactive)
REMARK    1  A    between atoms: C_1  and  C_2
REMARK    2  A    between atoms: C_2  and  C_3
REMARK    3  A    between atoms: C_3  and  C_4
REMARK    4  A    between atoms: C_4  and  C_5
REMARK    5  A    between atoms: C_5  and  C_6
REMARK    6  A    between atoms: C_5  and  O_8
REMARK    7  A    between atoms: C_6  and  C_7
REMARK    8  A    between atoms: O_8  and  C_9
REMARK    9  A    between atoms: C_9  and  C_11
REMARK   10  A    between atoms: C_12  and  C_13
REMARK   11  A    between atoms: C_16  and  O_17
REMARK   12  A    between atoms: O_17  and  C_18
REMARK                            x       y       z     vdW  Elec       q    Type
REMARK                         _______ _______ _______ _____ _____    ______ ____
ROOT
ATOM      1  C   UNL     1       3.931 -11.836   2.919  0.00  0.00    +0.000 C 
ATOM      2  O   UNL     1       3.106 -12.505   3.482  0.00  0.00    +0.000 OA
ENDROOT
BRANCH   1   3
ATOM      3  C   UNL     1       4.160 -10.499   3.296  0.00  0.00    +0.000 C 
ATOM      4  C   UNL     1       4.136  -9.622   2.395  0.00  0.00    +0.000 C 
BRANCH   4   5
ATOM      5  C   UNL     1       4.490  -8.303   2.582  0.00  0.00    +0.000 A 
ATOM      6  C   UNL     1       5.584  -7.783   2.009  0.00  0.00    +0.000 A 
ATOM      7  C   UNL     1       5.949  -6.488   2.183  0.00  0.00    +0.000 A 
ATOM      8  C   UNL     1       5.128  -5.710   2.945  0.00  0.00    +0.000 A 
ATOM      9  C   UNL     1       4.036  -6.168   3.520  0.00  0.00    +0.000 A 
ATOM     10  C   UNL     1       3.728  -7.475   3.360  0.00  0.00    +0.000 A 
BRANCH   8  11
ATOM     11  O   UNL     1       5.424  -4.451   3.164  0.00  0.00    +0.000 OA
ATOM     12  C   UNL     1       5.846  -3.769   2.032  0.00  0.00    +0.000 C 
ENDBRANCH   8  11
ENDBRANCH   4   5
ENDBRANCH   1   3
BRANCH   1  13
ATOM     13  O   UNL     1       4.626 -12.342   1.958  0.00  0.00    +0.000 OA
BRANCH  13  14
ATOM     14  C   UNL     1       5.572 -13.064   2.376  0.00  0.00    +0.000 C 
BRANCH  14  15
ATOM     15  C   UNL     1       5.293 -14.517   2.196  0.00  0.00    +0.000 C 
ATOM     16  C   UNL     1       5.446 -15.273   3.379  0.00  0.00    +0.000 C 
ENDBRANCH  14  15
BRANCH  14  17
ATOM     17  C   UNL     1       6.864 -12.596   2.091  0.00  0.00    +0.000 C 
BRANCH  17  18
ATOM     18  C   UNL     1       7.572 -12.142   3.233  0.00  0.00    +0.000 C 
BRANCH  18  20
ATOM     19  C   UNL     1       7.681  -9.906   4.170  0.00  0.00    +0.000 C 
ATOM     20  C   UNL     1       7.818 -10.748   2.921  0.00  0.00    +0.000 C 
ENDBRANCH  18  20
ENDBRANCH  17  18
ENDBRANCH  14  17
ENDBRANCH  13  14
ENDBRANCH   1  13
TORSDOF 9
ENDMDL
MODEL 2
REMARK VINA RESULT:      -3.3      1.982      7.093
REMARK  Name = bg33_1_ligand
REMARK  12 active torsions:
REMARK  status: ('A' for Active; 'I' for Inactive)
REMARK    1  A    between atoms: C_1  and  C_2
REMARK    2  A    between atoms: C_2  and  C_3
REMARK    3  A    between atoms: C_3  and  C_4
REMARK    4  A    between atoms: C_4  and  C_5
REMARK    5  A    between atoms: C_5  and  C_6
REMARK    6  A    between atoms: C_5  and  O_8
REMARK    7  A    between atoms: C_6  and  C_7
REMARK    8  A    between atoms: O_8  and  C_9
REMARK    9  A    between atoms: C_9  and  C_11
REMARK   10  A    between atoms: C_12  and  C_13
REMARK   11  A    between atoms: C_16  and  O_17
REMARK   12  A    between atoms: O_17  and  C_18
REMARK                            x       y       z     vdW  Elec       q    Type
REMARK                         _______ _______ _______ _____ _____    ______ ____
ROOT
ATOM      1  C   UNL     1       3.904  -9.091   2.685  0.00  0.00    +0.000 C 
ATOM      2  O   UNL     1       2.914  -8.888   3.335  0.00  0.00    +0.000 OA
ENDROOT
BRANCH   1   3
ATOM      3  C   UNL     1       4.511 -10.362   2.666  0.00  0.00    +0.000 C 
ATOM      4  C   UNL     1       3.765 -11.370   2.744  0.00  0.00    +0.000 C 
BRANCH   4   5
ATOM      5  C   UNL     1       4.217 -12.664   2.891  0.00  0.00    +0.000 A 
ATOM      6  C   UNL     1       3.621 -13.523   3.729  0.00  0.00    +0.000 A 
ATOM      7  C   UNL     1       4.052 -14.799   3.888  0.00  0.00    +0.000 A 
ATOM      8  C   UNL     1       5.110 -15.196   3.123  0.00  0.00    +0.000 A 
ATOM      9  C   UNL     1       5.723 -14.396   2.276  0.00  0.00    +0.000 A 
ATOM     10  C   UNL     1       5.293 -13.118   2.178  0.00  0.00    +0.000 A 
BRANCH   8  11
ATOM     11  O   UNL     1       5.587 -16.413   3.232  0.00  0.00    +0.000 OA
ATOM     12  C   UNL     1       5.868 -16.791   4.536  0.00  0.00    +0.000 C 
ENDBRANCH   8  11
ENDBRANCH   4   5
ENDBRANCH   1   3
BRANCH   1  13
ATOM     13  O   UNL     1       4.425  -8.139   1.988  0.00  0.00    +0.000 OA
BRANCH  13  14
ATOM     14  C   UNL     1       5.532  -7.752   2.453  0.00  0.00    +0.000 C 
BRANCH  14  15
ATOM     15  C   UNL     1       6.642  -7.911   1.471  0.00  0.00    +0.000 C 
ATOM     16  C   UNL     1       7.800  -8.507   2.018  0.00  0.00    +0.000 C 
ENDBRANCH  14  15
BRANCH  14  17
ATOM     17  C   UNL     1       5.490  -6.580   3.223  0.00  0.00    +0.000 C 
BRANCH  17  18
ATOM     18  C   UNL     1       5.054  -5.438   2.502  0.00  0.00    +0.000 C 
BRANCH  18  20
ATOM     19  C   UNL     1       6.043  -3.341   1.785  0.00  0.00    +0.000 C 
ATOM     20  C   UNL     1       6.084  -4.462   2.799  0.00  0.00    +0.000 C 
ENDBRANCH  18  20
ENDBRANCH  17  18
ENDBRANCH  14  17
ENDBRANCH  13  14
ENDBRANCH   1  13
TORSDOF 9
ENDMDL
MODEL 3
REMARK VINA RESULT:      -3.3      1.527      7.281
REMARK  Name = bg33_1_ligand
REMARK  12 active torsions:
REMARK  status: ('A' for Active; 'I' for Inactive)
REMARK    1  A    between atoms: C_1  and  C_2
REMARK    2  A    between atoms: C_2  and  C_3
REMARK    3  A    between atoms: C_3  and  C_4
REMARK    4  A    between atoms: C_4  and  C_5
REMARK    5  A    between atoms: C_5  and  C_6
REMARK    6  A    between atoms: C_5  and  O_8
REMARK    7  A    between atoms: C_6  and  C_7
REMARK    8  A    between atoms: O_8  and  C_9
REMARK    9  A    between atoms: C_9  and  C_11
REMARK   10  A    between atoms: C_12  and  C_13
REMARK   11  A    between atoms: C_16  and  O_17
REMARK   12  A    between atoms: O_17  and  C_18
REMARK                            x       y       z     vdW  Elec       q    Type
REMARK                         _______ _______ _______ _____ _____    ______ ____
ROOT
ATOM      1  C   UNL     1       4.696  -6.676   2.667  0.00  0.00    +0.000 C 
ATOM      2  O   UNL     1       3.913  -6.317   3.505  0.00  0.00    +0.000 OA
ENDROOT
BRANCH   1   3
ATOM      3  C   UNL     1       4.759  -8.024   2.265  0.00  0.00    +0.000 C 
ATOM      4  C   UNL     1       5.003  -8.890   3.143  0.00  0.00    +0.000 C 
BRANCH   4   5
ATOM      5  C   UNL     1       5.246 -10.221   2.880  0.00  0.00    +0.000 A 
ATOM      6  C   UNL     1       4.246 -11.105   2.761  0.00  0.00    +0.000 A 
ATOM      7  C   UNL     1       4.466 -12.419   2.504  0.00  0.00    +0.000 A 
ATOM      8  C   UNL     1       5.761 -12.808   2.331  0.00  0.00    +0.000 A 
ATOM      9  C   UNL     1       6.779 -11.978   2.425  0.00  0.00    +0.000 A 
ATOM     10  C   UNL     1       6.523 -10.684   2.726  0.00  0.00    +0.000 A 
BRANCH   8  11
ATOM     11  O   UNL     1       6.049 -14.065   2.089  0.00  0.00    +0.000 OA
ATOM     12  C   UNL     1       5.049 -14.951   2.460  0.00  0.00    +0.000 C 
ENDBRANCH   8  11
ENDBRANCH   4   5
ENDBRANCH   1   3
BRANCH   1  13
ATOM     13  O   UNL     1       5.493  -5.823   2.119  0.00  0.00    +0.000 OA
BRANCH  13  14
ATOM     14  C   UNL     1       6.273  -5.288   2.954  0.00  0.00    +0.000 C 
BRANCH  14  15
ATOM     15  C   UNL     1       7.512  -6.090   3.159  0.00  0.00    +0.000 C 
ATOM     16  C   UNL     1       8.445  -5.970   2.105  0.00  0.00    +0.000 C 
ENDBRANCH  14  15
BRANCH  14  17
ATOM     17  C   UNL     1       6.393  -3.893   2.864  0.00  0.00    +0.000 C 
BRANCH  17  18
ATOM     18  C   UNL     1       5.797  -3.342   1.701  0.00  0.00    +0.000 C 
BRANCH  18  20
ATOM     19  C   UNL     1       6.322  -1.477   0.239  0.00  0.00    +0.000 C 
ATOM     20  C   UNL     1       6.879  -2.567   1.126  0.00  0.00    +0.000 C 
ENDBRANCH  18  20
ENDBRANCH  17  18
ENDBRANCH  14  17
ENDBRANCH  13  14
ENDBRANCH   1  13
TORSDOF 9
ENDMDL
MODEL 4
REMARK VINA RESULT:      -3.3      2.648      8.533
REMARK  Name = bg33_1_ligand
REMARK  12 active torsions:
REMARK  status: ('A' for Active; 'I' for Inactive)
REMARK    1  A    between atoms: C_1  and  C_2
REMARK    2  A    between atoms: C_2  and  C_3
REMARK    3  A    between atoms: C_3  and  C_4
REMARK    4  A    between atoms: C_4  and  C_5
REMARK    5  A    between atoms: C_5  and  C_6
REMARK    6  A    between atoms: C_5  and  O_8
REMARK    7  A    between atoms: C_6  and  C_7
REMARK    8  A    between atoms: O_8  and  C_9
REMARK    9  A    between atoms: C_9  and  C_11
REMARK   10  A    between atoms: C_12  and  C_13
REMARK   11  A    between atoms: C_16  and  O_17
REMARK   12  A    between atoms: O_17  and  C_18
REMARK                            x       y       z     vdW  Elec       q    Type
REMARK                         _______ _______ _______ _____ _____    ______ ____
ROOT
ATOM      1  C   UNL     1       6.236  -3.205   2.912  0.00  0.00    +0.000 C 
ATOM      2  O   UNL     1       6.578  -2.412   3.747  0.00  0.00    +0.000 OA
ENDROOT
BRANCH   1   3
ATOM      3  C   UNL     1       5.841  -4.509   3.268  0.00  0.00    +0.000 C 
ATOM      4  C   UNL     1       5.226  -5.193   2.411  0.00  0.00    +0.000 C 
BRANCH   4   5
ATOM      5  C   UNL     1       4.646  -6.417   2.661  0.00  0.00    +0.000 A 
ATOM      6  C   UNL     1       5.036  -7.523   2.012  0.00  0.00    +0.000 A 
ATOM      7  C   UNL     1       4.476  -8.736   2.244  0.00  0.00    +0.000 A 
ATOM      8  C   UNL     1       3.509  -8.800   3.204  0.00  0.00    +0.000 A 
ATOM      9  C   UNL     1       3.097  -7.746   3.878  0.00  0.00    +0.000 A 
ATOM     10  C   UNL     1       3.648  -6.546   3.589  0.00  0.00    +0.000 A 
BRANCH   8  11
ATOM     11  O   UNL     1       2.916  -9.938   3.474  0.00  0.00    +0.000 OA
ATOM     12  C   UNL     1       3.520 -11.039   2.885  0.00  0.00    +0.000 C 
ENDBRANCH   8  11
ENDBRANCH   4   5
ENDBRANCH   1   3
BRANCH   1  13
ATOM     13  O   UNL     1       6.222  -2.866   1.667  0.00  0.00    +0.000 OA
BRANCH  13  14
ATOM     14  C   UNL     1       7.282  -2.281   1.316  0.00  0.00    +0.000 C 
BRANCH  14  15
ATOM     15  C   UNL     1       8.345  -3.242   0.904  0.00  0.00    +0.000 C 
ATOM     16  C   UNL     1       8.873  -2.984  -0.381  0.00  0.00    +0.000 C 
ENDBRANCH  14  15
BRANCH  14  17
ATOM     17  C   UNL     1       7.108  -1.117   0.553  0.00  0.00    +0.000 C 
BRANCH  17  18
ATOM     18  C   UNL     1       5.849  -1.041  -0.095  0.00  0.00    +0.000 C 
BRANCH  18  20
ATOM     19  C   UNL     1       6.553   1.194  -0.727  0.00  0.00    +0.000 C 
ATOM     20  C   UNL     1       6.121  -0.169  -1.220  0.00  0.00    +0.000 C 
ENDBRANCH  18  20
ENDBRANCH  17  18
ENDBRANCH  14  17
ENDBRANCH  13  14
ENDBRANCH   1  13
TORSDOF 9
ENDMDL
MODEL 5
REMARK VINA RESULT:      -3.3      2.109      6.966
REMARK  Name = bg33_1_ligand
REMARK  12 active torsions:
REMARK  status: ('A' for Active; 'I' for Inactive)
REMARK    1  A    between atoms: C_1  and  C_2
REMARK    2  A    between atoms: C_2  and  C_3
REMARK    3  A    between atoms: C_3  and  C_4
REMARK    4  A    between atoms: C_4  and  C_5
REMARK    5  A    between atoms: C_5  and  C_6
REMARK    6  A    between atoms: C_5  and  O_8
REMARK    7  A    between atoms: C_6  and  C_7
REMARK    8  A    between atoms: O_8  and  C_9
REMARK    9  A    between atoms: C_9  and  C_11
REMARK   10  A    between atoms: C_12  and  C_13
REMARK   11  A    between atoms: C_16  and  O_17
REMARK   12  A    between atoms: O_17  and  C_18
REMARK                            x       y       z     vdW  Elec       q    Type
REMARK                         _______ _______ _______ _____ _____    ______ ____
ROOT
ATOM      1  C   UNL     1       5.742  -7.927   2.078  0.00  0.00    +0.000 C 
ATOM      2  O   UNL     1       6.893  -7.699   1.816  0.00  0.00    +0.000 OA
ENDROOT
BRANCH   1   3
ATOM      3  C   UNL     1       5.353  -9.173   2.607  0.00  0.00    +0.000 C 
ATOM      4  C   UNL     1       4.253  -9.654   2.232  0.00  0.00    +0.000 C 
BRANCH   4   5
ATOM      5  C   UNL     1       3.670 -10.779   2.772  0.00  0.00    +0.000 A 
ATOM      6  C   UNL     1       4.373 -11.900   2.984  0.00  0.00    +0.000 A 
ATOM      7  C   UNL     1       3.815 -13.017   3.513  0.00  0.00    +0.000 A 
ATOM      8  C   UNL     1       2.498 -12.947   3.862  0.00  0.00    +0.000 A 
ATOM      9  C   UNL     1       1.766 -11.868   3.687  0.00  0.00    +0.000 A 
ATOM     10  C   UNL     1       2.345 -10.787   3.116  0.00  0.00    +0.000 A 
BRANCH   8  11
ATOM     11  O   UNL     1       1.890 -13.993   4.370  0.00  0.00    +0.000 OA
ATOM     12  C   UNL     1       2.754 -14.982   4.817  0.00  0.00    +0.000 C 
ENDBRANCH   8  11
ENDBRANCH   4   5
ENDBRANCH   1   3
BRANCH   1  13
ATOM     13  O   UNL     1       4.843  -7.024   1.880  0.00  0.00    +0.000 OA
BRANCH  13  14
ATOM     14  C   UNL     1       4.830  -6.151   2.790  0.00  0.00    +0.000 C 
BRANCH  14  15
ATOM     15  C   UNL     1       5.354  -4.838   2.318  0.00  0.00    +0.000 C 
ATOM     16  C   UNL     1       6.265  -4.237   3.215  0.00  0.00    +0.000 C 
ENDBRANCH  14  15
BRANCH  14  17
ATOM     17  C   UNL     1       3.696  -6.154   3.616  0.00  0.00    +0.000 C 
BRANCH  17  18
ATOM     18  C   UNL     1       3.951  -6.609   4.935  0.00  0.00    +0.000 C 
BRANCH  18  20
ATOM     19  C   UNL     1       1.728  -7.346   4.301  0.00  0.00    +0.000 C 
ATOM     20  C   UNL     1       2.969  -7.661   5.104  0.00  0.00    +0.000 C 
ENDBRANCH  18  20
ENDBRANCH  17  18
ENDBRANCH  14  17
ENDBRANCH  13  14
ENDBRANCH   1  13
TORSDOF 9
ENDMDL
MODEL 6
REMARK VINA RESULT:      -3.3      2.983      6.470
REMARK  Name = bg33_1_ligand
REMARK  12 active torsions:
REMARK  status: ('A' for Active; 'I' for Inactive)
REMARK    1  A    between atoms: C_1  and  C_2
REMARK    2  A    between atoms: C_2  and  C_3
REMARK    3  A    between atoms: C_3  and  C_4
REMARK    4  A    between atoms: C_4  and  C_5
REMARK    5  A    between atoms: C_5  and  C_6
REMARK    6  A    between atoms: C_5  and  O_8
REMARK    7  A    between atoms: C_6  and  C_7
REMARK    8  A    between atoms: O_8  and  C_9
REMARK    9  A    between atoms: C_9  and  C_11
REMARK   10  A    between atoms: C_12  and  C_13
REMARK   11  A    between atoms: C_16  and  O_17
REMARK   12  A    between atoms: O_17  and  C_18
REMARK                            x       y       z     vdW  Elec       q    Type
REMARK                         _______ _______ _______ _____ _____    ______ ____
ROOT
ATOM      1  C   UNL     1       5.807  -5.451   2.532  0.00  0.00    +0.000 C 
ATOM      2  O   UNL     1       6.693  -5.789   3.270  0.00  0.00    +0.000 OA
ENDROOT
BRANCH   1   3
ATOM      3  C   UNL     1       5.648  -4.102   2.160  0.00  0.00    +0.000 C 
ATOM      4  C   UNL     1       6.645  -3.501   1.685  0.00  0.00    +0.000 C 
BRANCH   4   5
ATOM      5  C   UNL     1       6.688  -2.150   1.421  0.00  0.00    +0.000 A 
ATOM      6  C   UNL     1       7.334  -1.298   2.228  0.00  0.00    +0.000 A 
ATOM      7  C   UNL     1       7.385   0.036   1.985  0.00  0.00    +0.000 A 
ATOM      8  C   UNL     1       6.776   0.482   0.849  0.00  0.00    +0.000 A 
ATOM      9  C   UNL     1       6.139  -0.313   0.016  0.00  0.00    +0.000 A 
ATOM     10  C   UNL     1       6.071  -1.631   0.315  0.00  0.00    +0.000 A 
BRANCH   8  11
ATOM     11  O   UNL     1       6.777   1.761   0.555  0.00  0.00    +0.000 OA
ATOM     12  C   UNL     1       5.656   2.175  -0.149  0.00  0.00    +0.000 C 
ENDBRANCH   8  11
ENDBRANCH   4   5
ENDBRANCH   1   3
BRANCH   1  13
ATOM     13  O   UNL     1       4.986  -6.329   2.064  0.00  0.00    +0.000 OA
BRANCH  13  14
ATOM     14  C   UNL     1       4.516  -7.075   2.965  0.00  0.00    +0.000 C 
BRANCH  14  15
ATOM     15  C   UNL     1       3.390  -6.431   3.699  0.00  0.00    +0.000 C 
ATOM     16  C   UNL     1       2.409  -7.344   4.145  0.00  0.00    +0.000 C 
ENDBRANCH  14  15
BRANCH  14  17
ATOM     17  C   UNL     1       4.397  -8.432   2.628  0.00  0.00    +0.000 C 
BRANCH  17  18
ATOM     18  C   UNL     1       5.629  -9.136   2.648  0.00  0.00    +0.000 C 
BRANCH  18  20
ATOM     19  C   UNL     1       3.711 -10.620   2.740  0.00  0.00    +0.000 C 
ATOM     20  C   UNL     1       5.211 -10.502   2.889  0.00  0.00    +0.000 C 
ENDBRANCH  18  20
ENDBRANCH  17  18
ENDBRANCH  14  17
ENDBRANCH  13  14
ENDBRANCH   1  13
TORSDOF 9
ENDMDL
MODEL 7
REMARK VINA RESULT:      -3.3      2.348      5.219
REMARK  Name = bg33_1_ligand
REMARK  12 active torsions:
REMARK  status: ('A' for Active; 'I' for Inactive)
REMARK    1  A    between atoms: C_1  and  C_2
REMARK    2  A    between atoms: C_2  and  C_3
REMARK    3  A    between atoms: C_3  and  C_4
REMARK    4  A    between atoms: C_4  and  C_5
REMARK    5  A    between atoms: C_5  and  C_6
REMARK    6  A    between atoms: C_5  and  O_8
REMARK    7  A    between atoms: C_6  and  C_7
REMARK    8  A    between atoms: O_8  and  C_9
REMARK    9  A    between atoms: C_9  and  C_11
REMARK   10  A    between atoms: C_12  and  C_13
REMARK   11  A    between atoms: C_16  and  O_17
REMARK   12  A    between atoms: O_17  and  C_18
REMARK                            x       y       z     vdW  Elec       q    Type
REMARK                         _______ _______ _______ _____ _____    ______ ____
ROOT
ATOM      1  C   UNL     1       4.237  -6.498   3.352  0.00  0.00    +0.000 C 
ATOM      2  O   UNL     1       3.093  -6.386   3.704  0.00  0.00    +0.000 OA
ENDROOT
BRANCH   1   3
ATOM      3  C   UNL     1       4.883  -5.463   2.648  0.00  0.00    +0.000 C 
ATOM      4  C   UNL     1       5.578  -4.649   3.306  0.00  0.00    +0.000 C 
BRANCH   4   5
ATOM      5  C   UNL     1       6.141  -3.504   2.784  0.00  0.00    +0.000 A 
ATOM      6  C   UNL     1       6.074  -3.224   1.475  0.00  0.00    +0.000 A 
ATOM      7  C   UNL     1       6.622  -2.104   0.943  0.00  0.00    +0.000 A 
ATOM      8  C   UNL     1       7.224  -1.237   1.808  0.00  0.00    +0.000 A 
ATOM      9  C   UNL     1       7.307  -1.458   3.103  0.00  0.00    +0.000 A 
ATOM     10  C   UNL     1       6.787  -2.608   3.591  0.00  0.00    +0.000 A 
BRANCH   8  11
ATOM     11  O   UNL     1       7.785  -0.138   1.363  0.00  0.00    +0.000 OA
ATOM     12  C   UNL     1       7.183   1.024   1.822  0.00  0.00    +0.000 C 
ENDBRANCH   8  11
ENDBRANCH   4   5
ENDBRANCH   1   3
BRANCH   1  13
ATOM     13  O   UNL     1       4.894  -7.574   3.623  0.00  0.00    +0.000 OA
BRANCH  13  14
ATOM     14  C   UNL     1       4.980  -8.347   2.630  0.00  0.00    +0.000 C 
BRANCH  14  15
ATOM     15  C   UNL     1       6.372  -8.836   2.416  0.00  0.00    +0.000 C 
ATOM     16  C   UNL     1       7.097  -8.082   1.468  0.00  0.00    +0.000 C 
ENDBRANCH  14  15
BRANCH  14  17
ATOM     17  C   UNL     1       3.926  -9.261   2.479  0.00  0.00    +0.000 C 
BRANCH  17  18
ATOM     18  C   UNL     1       3.897 -10.269   3.476  0.00  0.00    +0.000 C 
BRANCH  18  20
ATOM     19  C   UNL     1       4.818 -12.288   2.492  0.00  0.00    +0.000 C 
ATOM     20  C   UNL     1       3.572 -11.459   2.714  0.00  0.00    +0.000 C 
ENDBRANCH  18  20
ENDBRANCH  17  18
ENDBRANCH  14  17
ENDBRANCH  13  14
ENDBRANCH   1  13
TORSDOF 9
ENDMDL
MODEL 8
REMARK VINA RESULT:      -3.3      2.760      4.930
REMARK  Name = bg33_1_ligand
REMARK  12 active torsions:
REMARK  status: ('A' for Active; 'I' for Inactive)
REMARK    1  A    between atoms: C_1  and  C_2
REMARK    2  A    between atoms: C_2  and  C_3
REMARK    3  A    between atoms: C_3  and  C_4
REMARK    4  A    between atoms: C_4  and  C_5
REMARK    5  A    between atoms: C_5  and  C_6
REMARK    6  A    between atoms: C_5  and  O_8
REMARK    7  A    between atoms: C_6  and  C_7
REMARK    8  A    between atoms: O_8  and  C_9
REMARK    9  A    between atoms: C_9  and  C_11
REMARK   10  A    between atoms: C_12  and  C_13
REMARK   11  A    between atoms: C_16  and  O_17
REMARK   12  A    between atoms: O_17  and  C_18
REMARK                            x       y       z     vdW  Elec       q    Type
REMARK                         _______ _______ _______ _____ _____    ______ ____
ROOT
ATOM      1  C   UNL     1       4.486  -6.898   2.943  0.00  0.00    +0.000 C 
ATOM      2  O   UNL     1       3.441  -7.161   3.475  0.00  0.00    +0.000 OA
ENDROOT
BRANCH   1   3
ATOM      3  C   UNL     1       5.160  -5.694   3.226  0.00  0.00    +0.000 C 
ATOM      4  C   UNL     1       5.189  -4.812   2.331  0.00  0.00    +0.000 C 
BRANCH   4   5
ATOM      5  C   UNL     1       5.933  -3.654   2.402  0.00  0.00    +0.000 A 
ATOM      6  C   UNL     1       6.274  -2.972   1.300  0.00  0.00    +0.000 A 
ATOM      7  C   UNL     1       7.007  -1.832   1.350  0.00  0.00    +0.000 A 
ATOM      8  C   UNL     1       7.360  -1.375   2.586  0.00  0.00    +0.000 A 
ATOM      9  C   UNL     1       7.041  -2.001   3.699  0.00  0.00    +0.000 A 
ATOM     10  C   UNL     1       6.348  -3.158   3.608  0.00  0.00    +0.000 A 
BRANCH   8  11
ATOM     11  O   UNL     1       8.078  -0.285   2.709  0.00  0.00    +0.000 OA
ATOM     12  C   UNL     1       7.384   0.880   2.415  0.00  0.00    +0.000 C 
ENDBRANCH   8  11
ENDBRANCH   4   5
ENDBRANCH   1   3
BRANCH   1  13
ATOM     13  O   UNL     1       5.009  -7.724   2.103  0.00  0.00    +0.000 OA
BRANCH  13  14
ATOM     14  C   UNL     1       6.115  -8.179   2.501  0.00  0.00    +0.000 C 
BRANCH  14  15
ATOM     15  C   UNL     1       5.964  -9.471   3.230  0.00  0.00    +0.000 C 
ATOM     16  C   UNL     1       5.064 -10.367   2.612  0.00  0.00    +0.000 C 
ENDBRANCH  14  15
BRANCH  14  17
ATOM     17  C   UNL     1       7.184  -8.047   1.602  0.00  0.00    +0.000 C 
BRANCH  17  18
ATOM     18  C   UNL     1       8.387  -7.598   2.205  0.00  0.00    +0.000 C 
BRANCH  18  20
ATOM     19  C   UNL     1       9.202  -5.352   2.629  0.00  0.00    +0.000 C 
ATOM     20  C   UNL     1       8.562  -6.282   1.624  0.00  0.00    +0.000 C 
ENDBRANCH  18  20
ENDBRANCH  17  18
ENDBRANCH  14  17
ENDBRANCH  13  14
ENDBRANCH   1  13
TORSDOF 9
ENDMDL
MODEL 9
REMARK VINA RESULT:      -3.3      2.234      7.065
REMARK  Name = bg33_1_ligand
REMARK  12 active torsions:
REMARK  status: ('A' for Active; 'I' for Inactive)
REMARK    1  A    between atoms: C_1  and  C_2
REMARK    2  A    between atoms: C_2  and  C_3
REMARK    3  A    between atoms: C_3  and  C_4
REMARK    4  A    between atoms: C_4  and  C_5
REMARK    5  A    between atoms: C_5  and  C_6
REMARK    6  A    between atoms: C_5  and  O_8
REMARK    7  A    between atoms: C_6  and  C_7
REMARK    8  A    between atoms: O_8  and  C_9
REMARK    9  A    between atoms: C_9  and  C_11
REMARK   10  A    between atoms: C_12  and  C_13
REMARK   11  A    between atoms: C_16  and  O_17
REMARK   12  A    between atoms: O_17  and  C_18
REMARK                            x       y       z     vdW  Elec       q    Type
REMARK                         _______ _______ _______ _____ _____    ______ ____
ROOT
ATOM      1  C   UNL     1       2.326  -9.449   3.787  0.00  0.00    +0.000 C 
ATOM      2  O   UNL     1       1.476  -9.381   2.940  0.00  0.00    +0.000 OA
ENDROOT
BRANCH   1   3
ATOM      3  C   UNL     1       3.099 -10.615   3.946  0.00  0.00    +0.000 C 
ATOM      4  C   UNL     1       3.534 -11.179   2.910  0.00  0.00    +0.000 C 
BRANCH   4   5
ATOM      5  C   UNL     1       4.169 -12.401   2.896  0.00  0.00    +0.000 A 
ATOM      6  C   UNL     1       3.675 -13.456   3.559  0.00  0.00    +0.000 A 
ATOM      7  C   UNL     1       4.287 -14.666   3.557  0.00  0.00    +0.000 A 
ATOM      8  C   UNL     1       5.425 -14.784   2.814  0.00  0.00    +0.000 A 
ATOM      9  C   UNL     1       5.946 -13.784   2.136  0.00  0.00    +0.000 A 
ATOM     10  C   UNL     1       5.332 -12.580   2.197  0.00  0.00    +0.000 A 
BRANCH   8  11
ATOM     11  O   UNL     1       6.076 -15.922   2.775  0.00  0.00    +0.000 OA
ATOM     12  C   UNL     1       5.335 -17.008   3.217  0.00  0.00    +0.000 C 
ENDBRANCH   8  11
ENDBRANCH   4   5
ENDBRANCH   1   3
BRANCH   1  13
ATOM     13  O   UNL     1       2.544  -8.443   4.564  0.00  0.00    +0.000 OA
BRANCH  13  14
ATOM     14  C   UNL     1       2.936  -7.424   3.933  0.00  0.00    +0.000 C 
BRANCH  14  15
ATOM     15  C   UNL     1       2.021  -6.262   4.116  0.00  0.00    +0.000 C 
ATOM     16  C   UNL     1       2.037  -5.729   5.424  0.00  0.00    +0.000 C 
ENDBRANCH  14  15
BRANCH  14  17
ATOM     17  C   UNL     1       4.319  -7.189   3.959  0.00  0.00    +0.000 C 
BRANCH  17  18
ATOM     18  C   UNL     1       4.825  -6.622   2.762  0.00  0.00    +0.000 C 
BRANCH  18  20
ATOM     19  C   UNL     1       6.142  -8.611   2.313  0.00  0.00    +0.000 C 
ATOM     20  C   UNL     1       4.954  -7.775   1.893  0.00  0.00    +0.000 C 
ENDBRANCH  18  20
ENDBRANCH  17  18
ENDBRANCH  14  17
ENDBRANCH  13  14
ENDBRANCH   1  13
TORSDOF 9
ENDMDL
