REMARK  Name = bg33_3_ligand
REMARK  12 active torsions:
REMARK  status: ('A' for Active; 'I' for Inactive)
REMARK    1  A    between atoms: C_1  and  C_2
REMARK    2  A    between atoms: C_2  and  C_3
REMARK    3  A    between atoms: C_3  and  C_4
REMARK    4  A    between atoms: C_4  and  C_5
REMARK    5  A    between atoms: C_5  and  C_6
REMARK    6  A    between atoms: C_5  and  O_8
REMARK    7  A    between atoms: C_6  and  C_7
REMARK    8  A    between atoms: O_8  and  C_9
REMARK    9  A    between atoms: C_9  and  C_11
REMARK   10  A    between atoms: C_12  and  C_13
REMARK   11  A    between atoms: C_16  and  O_17
REMARK   12  A    between atoms: O_17  and  C_18
REMARK                            x       y       z     vdW  Elec       q    Type
REMARK                         _______ _______ _______ _____ _____    ______ ____
ROOT
ATOM      1  C   UNL     1      -0.422   8.873  -2.361  0.00  0.00    +0.000 C 
ATOM      2  O   UNL     1       0.329   9.144  -1.453  0.00  0.00    +0.000 OA
ENDROOT
BRANCH   1   3
ATOM      3  C   UNL     1      -0.008   7.893  -3.509  0.00  0.00    +0.000 C 
ATOM      4  C   UNL     1      -0.276   6.575  -3.369  0.00  0.00    +0.000 C 
BRANCH   4   5
ATOM      5  C   UNL     1       0.160   5.598  -4.333  0.00  0.00    +0.000 A 
ATOM      6  C   UNL     1       1.491   5.273  -4.469  0.00  0.00    +0.000 A 
ATOM      7  C   UNL     1       1.919   4.326  -5.328  0.00  0.00    +0.000 A 
ATOM      8  C   UNL     1       0.982   3.671  -6.094  0.00  0.00    +0.000 A 
ATOM      9  C   UNL     1      -0.337   3.991  -6.012  0.00  0.00    +0.000 A 
ATOM     10  C   UNL     1      -0.750   4.956  -5.119  0.00  0.00    +0.000 A 
BRANCH   8  11
ATOM     11  O   UNL     1       1.330   2.738  -7.006  0.00  0.00    +0.000 OA
ATOM     12  C   UNL     1       2.580   2.105  -6.792  0.00  0.00    +0.000 C 
ENDBRANCH   8  11
ENDBRANCH   4   5
ENDBRANCH   1   3
BRANCH   1  13
ATOM     13  O   UNL     1      -1.555   9.435  -2.364  0.00  0.00    +0.000 OA
BRANCH  13  14
ATOM     14  C   UNL     1      -2.014  10.032  -1.110  0.00  0.00    +0.000 C 
BRANCH  14  15
ATOM     15  C   UNL     1      -3.470  10.013  -1.094  0.00  0.00    +0.000 C 
ATOM     16  C   UNL     1      -4.080   9.774  -2.443  0.00  0.00    +0.000 C 
ENDBRANCH  14  15
BRANCH  14  17
ATOM     17  C   UNL     1      -1.508  11.457  -0.975  0.00  0.00    +0.000 C 
BRANCH  17  18
ATOM     18  C   UNL     1      -1.131  11.679   0.506  0.00  0.00    +0.000 C 
BRANCH  18  20
ATOM     19  C   UNL     1       0.337  12.857   2.103  0.00  0.00    +0.000 C 
ATOM     20  C   UNL     1      -0.364  12.943   0.730  0.00  0.00    +0.000 C 
ENDBRANCH  18  20
ENDBRANCH  17  18
ENDBRANCH  14  17
ENDBRANCH  13  14
ENDBRANCH   1  13
TORSDOF 9
