MODEL 1
REMARK VINA RESULT:      -4.0      0.000      0.000
REMARK  Name = bg33_3_ligand
REMARK  12 active torsions:
REMARK  status: ('A' for Active; 'I' for Inactive)
REMARK    1  A    between atoms: C_1  and  C_2
REMARK    2  A    between atoms: C_2  and  C_3
REMARK    3  A    between atoms: C_3  and  C_4
REMARK    4  A    between atoms: C_4  and  C_5
REMARK    5  A    between atoms: C_5  and  C_6
REMARK    6  A    between atoms: C_5  and  O_8
REMARK    7  A    between atoms: C_6  and  C_7
REMARK    8  A    between atoms: O_8  and  C_9
REMARK    9  A    between atoms: C_9  and  C_11
REMARK   10  A    between atoms: C_12  and  C_13
REMARK   11  A    between atoms: C_16  and  O_17
REMARK   12  A    between atoms: O_17  and  C_18
REMARK                            x       y       z     vdW  Elec       q    Type
REMARK                         _______ _______ _______ _____ _____    ______ ____
ROOT
ATOM      1  C   UNL     1       9.273  -1.411  -4.066  0.00  0.00    +0.000 C 
ATOM      2  O   UNL     1       9.782  -2.165  -3.270  0.00  0.00    +0.000 OA
ENDROOT
BRANCH   1   3
ATOM      3  C   UNL     1       8.066  -1.849  -4.962  0.00  0.00    +0.000 C 
ATOM      4  C   UNL     1       7.995  -1.387  -6.231  0.00  0.00    +0.000 C 
BRANCH   4   5
ATOM      5  C   UNL     1       6.869  -1.663  -7.084  0.00  0.00    +0.000 A 
ATOM      6  C   UNL     1       6.117  -2.806  -6.928  0.00  0.00    +0.000 A 
ATOM      7  C   UNL     1       5.028  -3.063  -7.680  0.00  0.00    +0.000 A 
ATOM      8  C   UNL     1       4.668  -2.143  -8.639  0.00  0.00    +0.000 A 
ATOM      9  C   UNL     1       5.408  -1.021  -8.846  0.00  0.00    +0.000 A 
ATOM     10  C   UNL     1       6.511  -0.777  -8.057  0.00  0.00    +0.000 A 
BRANCH   8  11
ATOM     11  O   UNL     1       3.616  -2.342  -9.461  0.00  0.00    +0.000 OA
ATOM     12  C   UNL     1       3.897  -3.040 -10.663  0.00  0.00    +0.000 C 
ENDBRANCH   8  11
ENDBRANCH   4   5
ENDBRANCH   1   3
BRANCH   1  13
ATOM     13  O   UNL     1       9.772  -0.253  -4.169  0.00  0.00    +0.000 OA
BRANCH  13  14
ATOM     14  C   UNL     1       9.293   0.771  -3.242  0.00  0.00    +0.000 C 
BRANCH  14  15
ATOM     15  C   UNL     1       8.827   1.914  -4.015  0.00  0.00    +0.000 C 
ATOM     16  C   UNL     1       7.364   1.861  -4.339  0.00  0.00    +0.000 C 
ENDBRANCH  14  15
BRANCH  14  17
ATOM     17  C   UNL     1      10.398   1.197  -2.292  0.00  0.00    +0.000 C 
BRANCH  17  18
ATOM     18  C   UNL     1       9.873   2.397  -1.475  0.00  0.00    +0.000 C 
BRANCH  18  20
ATOM     19  C   UNL     1      10.091   0.613   0.217  0.00  0.00    +0.000 C 
ATOM     20  C   UNL     1       9.616   2.059  -0.041  0.00  0.00    +0.000 C 
ENDBRANCH  18  20
ENDBRANCH  17  18
ENDBRANCH  14  17
ENDBRANCH  13  14
ENDBRANCH   1  13
TORSDOF 9
ENDMDL
MODEL 2
REMARK VINA RESULT:      -3.8     14.915     17.361
REMARK  Name = bg33_3_ligand
REMARK  12 active torsions:
REMARK  status: ('A' for Active; 'I' for Inactive)
REMARK    1  A    between atoms: C_1  and  C_2
REMARK    2  A    between atoms: C_2  and  C_3
REMARK    3  A    between atoms: C_3  and  C_4
REMARK    4  A    between atoms: C_4  and  C_5
REMARK    5  A    between atoms: C_5  and  C_6
REMARK    6  A    between atoms: C_5  and  O_8
REMARK    7  A    between atoms: C_6  and  C_7
REMARK    8  A    between atoms: O_8  and  C_9
REMARK    9  A    between atoms: C_9  and  C_11
REMARK   10  A    between atoms: C_12  and  C_13
REMARK   11  A    between atoms: C_16  and  O_17
REMARK   12  A    between atoms: O_17  and  C_18
REMARK                            x       y       z     vdW  Elec       q    Type
REMARK                         _______ _______ _______ _____ _____    ______ ____
ROOT
ATOM      1  C   UNL     1      -5.064  -1.542   5.581  0.00  0.00    +0.000 C 
ATOM      2  O   UNL     1      -5.931  -1.518   6.424  0.00  0.00    +0.000 OA
ENDROOT
BRANCH   1   3
ATOM      3  C   UNL     1      -3.752  -0.701   5.724  0.00  0.00    +0.000 C 
ATOM      4  C   UNL     1      -3.508  -0.068   6.894  0.00  0.00    +0.000 C 
BRANCH   4   5
ATOM      5  C   UNL     1      -2.375   0.803   7.072  0.00  0.00    +0.000 A 
ATOM      6  C   UNL     1      -2.538   2.124   7.424  0.00  0.00    +0.000 A 
ATOM      7  C   UNL     1      -1.492   2.946   7.645  0.00  0.00    +0.000 A 
ATOM      8  C   UNL     1      -0.222   2.436   7.507  0.00  0.00    +0.000 A 
ATOM      9  C   UNL     1      -0.024   1.146   7.126  0.00  0.00    +0.000 A 
ATOM     10  C   UNL     1      -1.109   0.323   6.915  0.00  0.00    +0.000 A 
BRANCH   8  11
ATOM     11  O   UNL     1       0.878   3.201   7.672  0.00  0.00    +0.000 OA
ATOM     12  C   UNL     1       1.721   3.320   6.539  0.00  0.00    +0.000 C 
ENDBRANCH   8  11
ENDBRANCH   4   5
ENDBRANCH   1   3
BRANCH   1  13
ATOM     13  O   UNL     1      -5.269  -2.257   4.558  0.00  0.00    +0.000 OA
BRANCH  13  14
ATOM     14  C   UNL     1      -6.252  -1.777   3.587  0.00  0.00    +0.000 C 
BRANCH  14  15
ATOM     15  C   UNL     1      -7.176  -2.862   3.290  0.00  0.00    +0.000 C 
ATOM     16  C   UNL     1      -8.215  -2.501   2.270  0.00  0.00    +0.000 C 
ENDBRANCH  14  15
BRANCH  14  17
ATOM     17  C   UNL     1      -5.569  -1.309   2.315  0.00  0.00    +0.000 C 
BRANCH  17  18
ATOM     18  C   UNL     1      -5.403   0.224   2.413  0.00  0.00    +0.000 C 
BRANCH  18  20
ATOM     19  C   UNL     1      -7.635   1.260   2.216  0.00  0.00    +0.000 C 
ATOM     20  C   UNL     1      -6.499   0.881   3.190  0.00  0.00    +0.000 C 
ENDBRANCH  18  20
ENDBRANCH  17  18
ENDBRANCH  14  17
ENDBRANCH  13  14
ENDBRANCH   1  13
TORSDOF 9
ENDMDL
MODEL 3
REMARK VINA RESULT:      -3.8     14.776     15.605
REMARK  Name = bg33_3_ligand
REMARK  12 active torsions:
REMARK  status: ('A' for Active; 'I' for Inactive)
REMARK    1  A    between atoms: C_1  and  C_2
REMARK    2  A    between atoms: C_2  and  C_3
REMARK    3  A    between atoms: C_3  and  C_4
REMARK    4  A    between atoms: C_4  and  C_5
REMARK    5  A    between atoms: C_5  and  C_6
REMARK    6  A    between atoms: C_5  and  O_8
REMARK    7  A    between atoms: C_6  and  C_7
REMARK    8  A    between atoms: O_8  and  C_9
REMARK    9  A    between atoms: C_9  and  C_11
REMARK   10  A    between atoms: C_12  and  C_13
REMARK   11  A    between atoms: C_16  and  O_17
REMARK   12  A    between atoms: O_17  and  C_18
REMARK                            x       y       z     vdW  Elec       q    Type
REMARK                         _______ _______ _______ _____ _____    ______ ____
ROOT
ATOM      1  C   UNL     1      -2.564  -1.701   5.515  0.00  0.00    +0.000 C 
ATOM      2  O   UNL     1      -2.552  -2.772   6.076  0.00  0.00    +0.000 OA
ENDROOT
BRANCH   1   3
ATOM      3  C   UNL     1      -3.605  -1.369   4.395  0.00  0.00    +0.000 C 
ATOM      4  C   UNL     1      -4.725  -0.687   4.727  0.00  0.00    +0.000 C 
BRANCH   4   5
ATOM      5  C   UNL     1      -5.775  -0.429   3.776  0.00  0.00    +0.000 A 
ATOM      6  C   UNL     1      -6.546  -1.451   3.268  0.00  0.00    +0.000 A 
ATOM      7  C   UNL     1      -7.567  -1.230   2.416  0.00  0.00    +0.000 A 
ATOM      8  C   UNL     1      -7.836   0.068   2.045  0.00  0.00    +0.000 A 
ATOM      9  C   UNL     1      -7.074   1.098   2.499  0.00  0.00    +0.000 A 
ATOM     10  C   UNL     1      -6.041   0.847   3.377  0.00  0.00    +0.000 A 
BRANCH   8  11
ATOM     11  O   UNL     1      -8.816   0.372   1.167  0.00  0.00    +0.000 OA
ATOM     12  C   UNL     1      -9.895  -0.545   1.108  0.00  0.00    +0.000 C 
ENDBRANCH   8  11
ENDBRANCH   4   5
ENDBRANCH   1   3
BRANCH   1  13
ATOM     13  O   UNL     1      -1.681  -0.860   5.851  0.00  0.00    +0.000 OA
BRANCH  13  14
ATOM     14  C   UNL     1      -1.754  -0.311   7.205  0.00  0.00    +0.000 C 
BRANCH  14  15
ATOM     15  C   UNL     1      -2.513   0.931   7.160  0.00  0.00    +0.000 C 
ATOM     16  C   UNL     1      -3.796   0.877   7.935  0.00  0.00    +0.000 C 
ENDBRANCH  14  15
BRANCH  14  17
ATOM     17  C   UNL     1      -0.364  -0.055   7.758  0.00  0.00    +0.000 C 
BRANCH  17  18
ATOM     18  C   UNL     1       0.310   1.000   6.853  0.00  0.00    +0.000 C 
BRANCH  18  20
ATOM     19  C   UNL     1       1.747   3.007   6.861  0.00  0.00    +0.000 C 
ATOM     20  C   UNL     1       1.530   1.606   7.471  0.00  0.00    +0.000 C 
ENDBRANCH  18  20
ENDBRANCH  17  18
ENDBRANCH  14  17
ENDBRANCH  13  14
ENDBRANCH   1  13
TORSDOF 9
ENDMDL
MODEL 4
REMARK VINA RESULT:      -3.8     16.388     18.031
REMARK  Name = bg33_3_ligand
REMARK  12 active torsions:
REMARK  status: ('A' for Active; 'I' for Inactive)
REMARK    1  A    between atoms: C_1  and  C_2
REMARK    2  A    between atoms: C_2  and  C_3
REMARK    3  A    between atoms: C_3  and  C_4
REMARK    4  A    between atoms: C_4  and  C_5
REMARK    5  A    between atoms: C_5  and  C_6
REMARK    6  A    between atoms: C_5  and  O_8
REMARK    7  A    between atoms: C_6  and  C_7
REMARK    8  A    between atoms: O_8  and  C_9
REMARK    9  A    between atoms: C_9  and  C_11
REMARK   10  A    between atoms: C_12  and  C_13
REMARK   11  A    between atoms: C_16  and  O_17
REMARK   12  A    between atoms: O_17  and  C_18
REMARK                            x       y       z     vdW  Elec       q    Type
REMARK                         _______ _______ _______ _____ _____    ______ ____
ROOT
ATOM      1  C   UNL     1      -7.827   0.761   2.259  0.00  0.00    +0.000 C 
ATOM      2  O   UNL     1      -8.452   0.683   1.226  0.00  0.00    +0.000 OA
ENDROOT
BRANCH   1   3
ATOM      3  C   UNL     1      -7.502   2.139   2.924  0.00  0.00    +0.000 C 
ATOM      4  C   UNL     1      -8.048   3.260   2.402  0.00  0.00    +0.000 C 
BRANCH   4   5
ATOM      5  C   UNL     1      -7.721   4.574   2.894  0.00  0.00    +0.000 A 
ATOM      6  C   UNL     1      -7.284   4.764   4.186  0.00  0.00    +0.000 A 
ATOM      7  C   UNL     1      -6.923   5.975   4.655  0.00  0.00    +0.000 A 
ATOM      8  C   UNL     1      -7.004   7.053   3.803  0.00  0.00    +0.000 A 
ATOM      9  C   UNL     1      -7.466   6.909   2.532  0.00  0.00    +0.000 A 
ATOM     10  C   UNL     1      -7.819   5.658   2.074  0.00  0.00    +0.000 A 
BRANCH   8  11
ATOM     11  O   UNL     1      -6.700   8.306   4.205  0.00  0.00    +0.000 OA
ATOM     12  C   UNL     1      -5.898   9.060   3.313  0.00  0.00    +0.000 C 
ENDBRANCH   8  11
ENDBRANCH   4   5
ENDBRANCH   1   3
BRANCH   1  13
ATOM     13  O   UNL     1      -7.419  -0.321   2.772  0.00  0.00    +0.000 OA
BRANCH  13  14
ATOM     14  C   UNL     1      -6.384  -1.061   2.051  0.00  0.00    +0.000 C 
BRANCH  14  15
ATOM     15  C   UNL     1      -6.490  -2.469   2.406  0.00  0.00    +0.000 C 
ATOM     16  C   UNL     1      -7.898  -2.984   2.399  0.00  0.00    +0.000 C 
ENDBRANCH  14  15
BRANCH  14  17
ATOM     17  C   UNL     1      -5.003  -0.535   2.402  0.00  0.00    +0.000 C 
BRANCH  17  18
ATOM     18  C   UNL     1      -4.248  -1.664   3.137  0.00  0.00    +0.000 C 
BRANCH  18  20
ATOM     19  C   UNL     1      -2.420  -1.761   4.792  0.00  0.00    +0.000 C 
ATOM     20  C   UNL     1      -3.870  -1.298   4.537  0.00  0.00    +0.000 C 
ENDBRANCH  18  20
ENDBRANCH  17  18
ENDBRANCH  14  17
ENDBRANCH  13  14
ENDBRANCH   1  13
TORSDOF 9
ENDMDL
MODEL 5
REMARK VINA RESULT:      -3.8     12.681     14.008
REMARK  Name = bg33_3_ligand
REMARK  12 active torsions:
REMARK  status: ('A' for Active; 'I' for Inactive)
REMARK    1  A    between atoms: C_1  and  C_2
REMARK    2  A    between atoms: C_2  and  C_3
REMARK    3  A    between atoms: C_3  and  C_4
REMARK    4  A    between atoms: C_4  and  C_5
REMARK    5  A    between atoms: C_5  and  C_6
REMARK    6  A    between atoms: C_5  and  O_8
REMARK    7  A    between atoms: C_6  and  C_7
REMARK    8  A    between atoms: O_8  and  C_9
REMARK    9  A    between atoms: C_9  and  C_11
REMARK   10  A    between atoms: C_12  and  C_13
REMARK   11  A    between atoms: C_16  and  O_17
REMARK   12  A    between atoms: O_17  and  C_18
REMARK                            x       y       z     vdW  Elec       q    Type
REMARK                         _______ _______ _______ _____ _____    ______ ____
ROOT
ATOM      1  C   UNL     1      -3.197   6.489 -11.373  0.00  0.00    +0.000 C 
ATOM      2  O   UNL     1      -3.763   7.475 -11.785  0.00  0.00    +0.000 OA
ENDROOT
BRANCH   1   3
ATOM      3  C   UNL     1      -3.849   5.069 -11.454  0.00  0.00    +0.000 C 
ATOM      4  C   UNL     1      -3.985   4.348 -10.319  0.00  0.00    +0.000 C 
BRANCH   4   5
ATOM      5  C   UNL     1      -4.483   2.997 -10.324  0.00  0.00    +0.000 A 
ATOM      6  C   UNL     1      -5.330   2.544  -9.337  0.00  0.00    +0.000 A 
ATOM      7  C   UNL     1      -5.851   1.300  -9.347  0.00  0.00    +0.000 A 
ATOM      8  C   UNL     1      -5.512   0.461 -10.384  0.00  0.00    +0.000 A 
ATOM      9  C   UNL     1      -4.650   0.863 -11.356  0.00  0.00    +0.000 A 
ATOM     10  C   UNL     1      -4.139   2.142 -11.329  0.00  0.00    +0.000 A 
BRANCH   8  11
ATOM     11  O   UNL     1      -5.957  -0.812 -10.449  0.00  0.00    +0.000 OA
ATOM     12  C   UNL     1      -6.051  -1.365 -11.750  0.00  0.00    +0.000 C 
ENDBRANCH   8  11
ENDBRANCH   4   5
ENDBRANCH   1   3
BRANCH   1  13
ATOM     13  O   UNL     1      -2.059   6.652 -10.845  0.00  0.00    +0.000 OA
BRANCH  13  14
ATOM     14  C   UNL     1      -1.941   7.664  -9.796  0.00  0.00    +0.000 C 
BRANCH  14  15
ATOM     15  C   UNL     1      -0.555   8.105  -9.732  0.00  0.00    +0.000 C 
ATOM     16  C   UNL     1       0.390   7.221 -10.489  0.00  0.00    +0.000 C 
ENDBRANCH  14  15
BRANCH  14  17
ATOM     17  C   UNL     1      -2.374   7.102  -8.454  0.00  0.00    +0.000 C 
BRANCH  17  18
ATOM     18  C   UNL     1      -3.672   7.831  -8.041  0.00  0.00    +0.000 C 
BRANCH  18  20
ATOM     19  C   UNL     1      -3.482  10.245  -7.561  0.00  0.00    +0.000 C 
ATOM     20  C   UNL     1      -3.795   9.192  -8.647  0.00  0.00    +0.000 C 
ENDBRANCH  18  20
ENDBRANCH  17  18
ENDBRANCH  14  17
ENDBRANCH  13  14
ENDBRANCH   1  13
TORSDOF 9
ENDMDL
MODEL 6
REMARK VINA RESULT:      -3.8     15.305     18.242
REMARK  Name = bg33_3_ligand
REMARK  12 active torsions:
REMARK  status: ('A' for Active; 'I' for Inactive)
REMARK    1  A    between atoms: C_1  and  C_2
REMARK    2  A    between atoms: C_2  and  C_3
REMARK    3  A    between atoms: C_3  and  C_4
REMARK    4  A    between atoms: C_4  and  C_5
REMARK    5  A    between atoms: C_5  and  C_6
REMARK    6  A    between atoms: C_5  and  O_8
REMARK    7  A    between atoms: C_6  and  C_7
REMARK    8  A    between atoms: O_8  and  C_9
REMARK    9  A    between atoms: C_9  and  C_11
REMARK   10  A    between atoms: C_12  and  C_13
REMARK   11  A    between atoms: C_16  and  O_17
REMARK   12  A    between atoms: O_17  and  C_18
REMARK                            x       y       z     vdW  Elec       q    Type
REMARK                         _______ _______ _______ _____ _____    ______ ____
ROOT
ATOM      1  C   UNL     1      -6.602   9.737  -4.519  0.00  0.00    +0.000 C 
ATOM      2  O   UNL     1      -7.373  10.526  -5.013  0.00  0.00    +0.000 OA
ENDROOT
BRANCH   1   3
ATOM      3  C   UNL     1      -5.746  10.099  -3.260  0.00  0.00    +0.000 C 
ATOM      4  C   UNL     1      -5.876   9.346  -2.145  0.00  0.00    +0.000 C 
BRANCH   4   5
ATOM      5  C   UNL     1      -5.199   9.673  -0.916  0.00  0.00    +0.000 A 
ATOM      6  C   UNL     1      -5.200   8.805   0.153  0.00  0.00    +0.000 A 
ATOM      7  C   UNL     1      -4.532   9.066   1.295  0.00  0.00    +0.000 A 
ATOM      8  C   UNL     1      -3.831  10.246   1.384  0.00  0.00    +0.000 A 
ATOM      9  C   UNL     1      -3.836  11.143   0.361  0.00  0.00    +0.000 A 
ATOM     10  C   UNL     1      -4.519  10.849  -0.799  0.00  0.00    +0.000 A 
BRANCH   8  11
ATOM     11  O   UNL     1      -3.168  10.601   2.506  0.00  0.00    +0.000 OA
ATOM     12  C   UNL     1      -3.348   9.747   3.623  0.00  0.00    +0.000 C 
ENDBRANCH   8  11
ENDBRANCH   4   5
ENDBRANCH   1   3
BRANCH   1  13
ATOM     13  O   UNL     1      -6.491   8.607  -5.076  0.00  0.00    +0.000 OA
BRANCH  13  14
ATOM     14  C   UNL     1      -6.802   8.527  -6.503  0.00  0.00    +0.000 C 
BRANCH  14  15
ATOM     15  C   UNL     1      -7.503   7.275  -6.755  0.00  0.00    +0.000 C 
ATOM     16  C   UNL     1      -8.005   6.610  -5.508  0.00  0.00    +0.000 C 
ENDBRANCH  14  15
BRANCH  14  17
ATOM     17  C   UNL     1      -5.534   8.592  -7.336  0.00  0.00    +0.000 C 
BRANCH  17  18
ATOM     18  C   UNL     1      -5.665   7.550  -8.467  0.00  0.00    +0.000 C 
BRANCH  18  20
ATOM     19  C   UNL     1      -3.227   7.577  -8.083  0.00  0.00    +0.000 C 
ATOM     20  C   UNL     1      -4.348   7.165  -9.061  0.00  0.00    +0.000 C 
ENDBRANCH  18  20
ENDBRANCH  17  18
ENDBRANCH  14  17
ENDBRANCH  13  14
ENDBRANCH   1  13
TORSDOF 9
ENDMDL
MODEL 7
REMARK VINA RESULT:      -3.8     16.657     18.364
REMARK  Name = bg33_3_ligand
REMARK  12 active torsions:
REMARK  status: ('A' for Active; 'I' for Inactive)
REMARK    1  A    between atoms: C_1  and  C_2
REMARK    2  A    between atoms: C_2  and  C_3
REMARK    3  A    between atoms: C_3  and  C_4
REMARK    4  A    between atoms: C_4  and  C_5
REMARK    5  A    between atoms: C_5  and  C_6
REMARK    6  A    between atoms: C_5  and  O_8
REMARK    7  A    between atoms: C_6  and  C_7
REMARK    8  A    between atoms: O_8  and  C_9
REMARK    9  A    between atoms: C_9  and  C_11
REMARK   10  A    between atoms: C_12  and  C_13
REMARK   11  A    between atoms: C_16  and  O_17
REMARK   12  A    between atoms: O_17  and  C_18
REMARK                            x       y       z     vdW  Elec       q    Type
REMARK                         _______ _______ _______ _____ _____    ______ ____
ROOT
ATOM      1  C   UNL     1      -8.685   2.613   2.489  0.00  0.00    +0.000 C 
ATOM      2  O   UNL     1      -8.412   3.715   2.073  0.00  0.00    +0.000 OA
ENDROOT
BRANCH   1   3
ATOM      3  C   UNL     1      -7.643   1.744   3.268  0.00  0.00    +0.000 C 
ATOM      4  C   UNL     1      -6.665   1.119   2.573  0.00  0.00    +0.000 C 
BRANCH   4   5
ATOM      5  C   UNL     1      -5.729   0.224   3.203  0.00  0.00    +0.000 A 
ATOM      6  C   UNL     1      -5.044  -0.721   2.474  0.00  0.00    +0.000 A 
ATOM      7  C   UNL     1      -4.125  -1.537   3.031  0.00  0.00    +0.000 A 
ATOM      8  C   UNL     1      -3.877  -1.412   4.378  0.00  0.00    +0.000 A 
ATOM      9  C   UNL     1      -4.560  -0.513   5.136  0.00  0.00    +0.000 A 
ATOM     10  C   UNL     1      -5.487   0.315   4.541  0.00  0.00    +0.000 A 
BRANCH   8  11
ATOM     11  O   UNL     1      -3.002  -2.215   5.021  0.00  0.00    +0.000 OA
ATOM     12  C   UNL     1      -2.611  -1.788   6.315  0.00  0.00    +0.000 C 
ENDBRANCH   8  11
ENDBRANCH   4   5
ENDBRANCH   1   3
BRANCH   1  13
ATOM     13  O   UNL     1      -9.846   2.173   2.247  0.00  0.00    +0.000 OA
BRANCH  13  14
ATOM     14  C   UNL     1      -9.953   0.820   1.701  0.00  0.00    +0.000 C 
BRANCH  14  15
ATOM     15  C   UNL     1     -10.353   0.915   0.304  0.00  0.00    +0.000 C 
ATOM     16  C   UNL     1     -11.206   2.113   0.006  0.00  0.00    +0.000 C 
ENDBRANCH  14  15
BRANCH  14  17
ATOM     17  C   UNL     1     -10.968   0.003   2.481  0.00  0.00    +0.000 C 
BRANCH  17  18
ATOM     18  C   UNL     1     -10.471  -1.459   2.502  0.00  0.00    +0.000 C 
BRANCH  18  20
ATOM     19  C   UNL     1      -8.255  -2.513   2.235  0.00  0.00    +0.000 C 
ATOM     20  C   UNL     1      -9.124  -1.609   3.135  0.00  0.00    +0.000 C 
ENDBRANCH  18  20
ENDBRANCH  17  18
ENDBRANCH  14  17
ENDBRANCH  13  14
ENDBRANCH   1  13
TORSDOF 9
ENDMDL
MODEL 8
REMARK VINA RESULT:      -3.8     17.003     18.443
REMARK  Name = bg33_3_ligand
REMARK  12 active torsions:
REMARK  status: ('A' for Active; 'I' for Inactive)
REMARK    1  A    between atoms: C_1  and  C_2
REMARK    2  A    between atoms: C_2  and  C_3
REMARK    3  A    between atoms: C_3  and  C_4
REMARK    4  A    between atoms: C_4  and  C_5
REMARK    5  A    between atoms: C_5  and  C_6
REMARK    6  A    between atoms: C_5  and  O_8
REMARK    7  A    between atoms: C_6  and  C_7
REMARK    8  A    between atoms: O_8  and  C_9
REMARK    9  A    between atoms: C_9  and  C_11
REMARK   10  A    between atoms: C_12  and  C_13
REMARK   11  A    between atoms: C_16  and  O_17
REMARK   12  A    between atoms: O_17  and  C_18
REMARK                            x       y       z     vdW  Elec       q    Type
REMARK                         _______ _______ _______ _____ _____    ______ ____
ROOT
ATOM      1  C   UNL     1      -5.310   7.241   1.533  0.00  0.00    +0.000 C 
ATOM      2  O   UNL     1      -4.635   6.852   2.458  0.00  0.00    +0.000 OA
ENDROOT
BRANCH   1   3
ATOM      3  C   UNL     1      -4.896   8.484   0.677  0.00  0.00    +0.000 C 
ATOM      4  C   UNL     1      -5.629   8.795  -0.416  0.00  0.00    +0.000 C 
BRANCH   4   5
ATOM      5  C   UNL     1      -5.257   9.862  -1.310  0.00  0.00    +0.000 A 
ATOM      6  C   UNL     1      -4.416  10.873  -0.904  0.00  0.00    +0.000 A 
ATOM      7  C   UNL     1      -4.012  11.854  -1.736  0.00  0.00    +0.000 A 
ATOM      8  C   UNL     1      -4.468  11.835  -3.034  0.00  0.00    +0.000 A 
ATOM      9  C   UNL     1      -5.329  10.872  -3.460  0.00  0.00    +0.000 A 
ATOM     10  C   UNL     1      -5.718   9.874  -2.592  0.00  0.00    +0.000 A 
BRANCH   8  11
ATOM     11  O   UNL     1      -4.144  12.801  -3.920  0.00  0.00    +0.000 OA
ATOM     12  C   UNL     1      -4.809  12.737  -5.170  0.00  0.00    +0.000 C 
ENDBRANCH   8  11
ENDBRANCH   4   5
ENDBRANCH   1   3
BRANCH   1  13
ATOM     13  O   UNL     1      -6.385   6.618   1.297  0.00  0.00    +0.000 OA
BRANCH  13  14
ATOM     14  C   UNL     1      -7.406   6.615   2.344  0.00  0.00    +0.000 C 
BRANCH  14  15
ATOM     15  C   UNL     1      -8.363   5.556   2.055  0.00  0.00    +0.000 C 
ATOM     16  C   UNL     1      -7.939   4.211   2.564  0.00  0.00    +0.000 C 
ENDBRANCH  14  15
BRANCH  14  17
ATOM     17  C   UNL     1      -8.114   7.956   2.410  0.00  0.00    +0.000 C 
BRANCH  17  18
ATOM     18  C   UNL     1      -9.042   8.054   1.180  0.00  0.00    +0.000 C 
BRANCH  18  20
ATOM     19  C   UNL     1      -9.311   9.313  -0.926  0.00  0.00    +0.000 C 
ATOM     20  C   UNL     1      -9.097   9.431   0.598  0.00  0.00    +0.000 C 
ENDBRANCH  18  20
ENDBRANCH  17  18
ENDBRANCH  14  17
ENDBRANCH  13  14
ENDBRANCH   1  13
TORSDOF 9
ENDMDL
MODEL 9
REMARK VINA RESULT:      -3.8     16.493     17.997
REMARK  Name = bg33_3_ligand
REMARK  12 active torsions:
REMARK  status: ('A' for Active; 'I' for Inactive)
REMARK    1  A    between atoms: C_1  and  C_2
REMARK    2  A    between atoms: C_2  and  C_3
REMARK    3  A    between atoms: C_3  and  C_4
REMARK    4  A    between atoms: C_4  and  C_5
REMARK    5  A    between atoms: C_5  and  C_6
REMARK    6  A    between atoms: C_5  and  O_8
REMARK    7  A    between atoms: C_6  and  C_7
REMARK    8  A    between atoms: O_8  and  C_9
REMARK    9  A    between atoms: C_9  and  C_11
REMARK   10  A    between atoms: C_12  and  C_13
REMARK   11  A    between atoms: C_16  and  O_17
REMARK   12  A    between atoms: O_17  and  C_18
REMARK                            x       y       z     vdW  Elec       q    Type
REMARK                         _______ _______ _______ _____ _____    ______ ____
ROOT
ATOM      1  C   UNL     1      -7.643   8.624   0.878  0.00  0.00    +0.000 C 
ATOM      2  O   UNL     1      -8.710   8.232   0.467  0.00  0.00    +0.000 OA
ENDROOT
BRANCH   1   3
ATOM      3  C   UNL     1      -6.828   9.732   0.131  0.00  0.00    +0.000 C 
ATOM      4  C   UNL     1      -6.130   9.393  -0.976  0.00  0.00    +0.000 C 
BRANCH   4   5
ATOM      5  C   UNL     1      -5.278  10.330  -1.662  0.00  0.00    +0.000 A 
ATOM      6  C   UNL     1      -5.437  10.590  -3.004  0.00  0.00    +0.000 A 
ATOM      7  C   UNL     1      -4.686  11.499  -3.658  0.00  0.00    +0.000 A 
ATOM      8  C   UNL     1      -3.727  12.183  -2.946  0.00  0.00    +0.000 A 
ATOM      9  C   UNL     1      -3.518  11.926  -1.627  0.00  0.00    +0.000 A 
ATOM     10  C   UNL     1      -4.305  10.999  -0.980  0.00  0.00    +0.000 A 
BRANCH   8  11
ATOM     11  O   UNL     1      -2.907  13.081  -3.533  0.00  0.00    +0.000 OA
ATOM     12  C   UNL     1      -1.678  12.567  -4.017  0.00  0.00    +0.000 C 
ENDBRANCH   8  11
ENDBRANCH   4   5
ENDBRANCH   1   3
BRANCH   1  13
ATOM     13  O   UNL     1      -7.192   8.084   1.929  0.00  0.00    +0.000 OA
BRANCH  13  14
ATOM     14  C   UNL     1      -6.443   6.837   1.778  0.00  0.00    +0.000 C 
BRANCH  14  15
ATOM     15  C   UNL     1      -7.198   5.763   2.407  0.00  0.00    +0.000 C 
ATOM     16  C   UNL     1      -7.896   6.182   3.667  0.00  0.00    +0.000 C 
ENDBRANCH  14  15
BRANCH  14  17
ATOM     17  C   UNL     1      -5.070   6.954   2.414  0.00  0.00    +0.000 C 
BRANCH  17  18
ATOM     18  C   UNL     1      -4.095   7.462   1.330  0.00  0.00    +0.000 C 
BRANCH  18  20
ATOM     19  C   UNL     1      -4.140   9.367   2.899  0.00  0.00    +0.000 C 
ATOM     20  C   UNL     1      -3.373   8.708   1.732  0.00  0.00    +0.000 C 
ENDBRANCH  18  20
ENDBRANCH  17  18
ENDBRANCH  14  17
ENDBRANCH  13  14
ENDBRANCH   1  13
TORSDOF 9
ENDMDL
