REMARK  Name = ox2_shuffle_esm0_ligand
REMARK  5 active torsions:
REMARK  status: ('A' for Active; 'I' for Inactive)
REMARK    1  A    between atoms: C_1  and  O_2
REMARK    2  A    between atoms: O_2  and  C_3
REMARK    3  A    between atoms: C_6  and  C_7
REMARK    4  A    between atoms: C_7  and  C_9
REMARK    5  A    between atoms: C_15  and  O_16
REMARK                            x       y       z     vdW  Elec       q    Type
REMARK                         _______ _______ _______ _____ _____    ______ ____
ROOT
ATOM      1  C   UNL     1       3.564  -5.836   5.231  0.00  0.00    +0.000 A 
ATOM      2  C   UNL     1       2.463  -6.545   5.695  0.00  0.00    +0.000 A 
ATOM      3  C   UNL     1       1.295  -5.881   5.977  0.00  0.00    +0.000 A 
ATOM      4  C   UNL     1       1.195  -4.520   5.802  0.00  0.00    +0.000 A 
ATOM      5  C   UNL     1       2.303  -3.811   5.359  0.00  0.00    +0.000 A 
ATOM      6  C   UNL     1       3.478  -4.476   5.067  0.00  0.00    +0.000 A 
ENDROOT
BRANCH   1   8
ATOM      7  C   UNL     1       5.055  -7.735   5.437  0.00  0.00    +0.000 C 
ATOM      8  O   UNL     1       4.732  -6.442   4.918  0.00  0.00    +0.000 OA
ENDBRANCH   1   8
BRANCH   4   9
ATOM      9  C   UNL     1      -0.055  -3.761   6.076  0.00  0.00    +0.000 C 
ATOM     10  O   UNL     1       0.063  -2.600   6.378  0.00  0.00    +0.000 OA
BRANCH   9  11
ATOM     11  C   UNL     1      -1.424  -4.296   5.944  0.00  0.00    +0.000 A 
ATOM     12  C   UNL     1      -2.503  -3.429   6.111  0.00  0.00    +0.000 A 
ATOM     13  C   UNL     1      -3.796  -3.881   5.973  0.00  0.00    +0.000 A 
ATOM     14  C   UNL     1      -4.047  -5.204   5.671  0.00  0.00    +0.000 A 
ATOM     15  C   UNL     1      -2.984  -6.067   5.492  0.00  0.00    +0.000 A 
ATOM     16  C   UNL     1      -1.686  -5.605   5.620  0.00  0.00    +0.000 A 
ENDBRANCH   9  11
ENDBRANCH   4   9
BRANCH   5  17
ATOM     17  O   UNL     1       2.200  -2.462   5.215  0.00  0.00    +0.000 OA
ATOM     18  H   UNL     1       2.979  -1.937   4.900  0.00  0.00    +0.000 HD
ENDBRANCH   5  17
TORSDOF 4
