MODEL 1
REMARK VINA RESULT:      -4.7      0.000      0.000
REMARK  Name = ox2_shuffle_esm0_ligand
REMARK  5 active torsions:
REMARK  status: ('A' for Active; 'I' for Inactive)
REMARK    1  A    between atoms: C_1  and  O_2
REMARK    2  A    between atoms: O_2  and  C_3
REMARK    3  A    between atoms: C_6  and  C_7
REMARK    4  A    between atoms: C_7  and  C_9
REMARK    5  A    between atoms: C_15  and  O_16
REMARK                            x       y       z     vdW  Elec       q    Type
REMARK                         _______ _______ _______ _____ _____    ______ ____
ROOT
ATOM      1  C   UNL     1       9.736  -9.436  -2.635  0.00  0.00    +0.000 A 
ATOM      2  C   UNL     1       9.637  -8.877  -3.903  0.00  0.00    +0.000 A 
ATOM      3  C   UNL     1       8.445  -8.935  -4.581  0.00  0.00    +0.000 A 
ATOM      4  C   UNL     1       7.341  -9.535  -4.021  0.00  0.00    +0.000 A 
ATOM      5  C   UNL     1       7.448 -10.112  -2.763  0.00  0.00    +0.000 A 
ATOM      6  C   UNL     1       8.644 -10.049  -2.074  0.00  0.00    +0.000 A 
ENDROOT
BRANCH   1   8
ATOM      7  C   UNL     1      11.421 -10.567  -1.312  0.00  0.00    +0.000 C 
ATOM      8  O   UNL     1      10.879  -9.389  -1.914  0.00  0.00    +0.000 OA
ENDBRANCH   1   8
BRANCH   4   9
ATOM      9  C   UNL     1       6.024  -9.605  -4.710  0.00  0.00    +0.000 C 
ATOM     10  O   UNL     1       5.798 -10.592  -5.364  0.00  0.00    +0.000 OA
BRANCH   9  11
ATOM     11  C   UNL     1       4.951  -8.596  -4.605  0.00  0.00    +0.000 A 
ATOM     12  C   UNL     1       3.743  -8.961  -4.013  0.00  0.00    +0.000 A 
ATOM     13  C   UNL     1       2.725  -8.045  -3.873  0.00  0.00    +0.000 A 
ATOM     14  C   UNL     1       2.881  -6.749  -4.321  0.00  0.00    +0.000 A 
ATOM     15  C   UNL     1       4.079  -6.377  -4.898  0.00  0.00    +0.000 A 
ATOM     16  C   UNL     1       5.104  -7.298  -5.026  0.00  0.00    +0.000 A 
ENDBRANCH   9  11
ENDBRANCH   4   9
BRANCH   5  17
ATOM     17  O   UNL     1       6.357 -10.725  -2.231  0.00  0.00    +0.000 OA
ATOM     18  H   UNL     1       6.044 -11.588  -2.604  0.00  0.00    +0.000 HD
ENDBRANCH   5  17
TORSDOF 4
ENDMDL
MODEL 2
REMARK VINA RESULT:      -4.6      1.271      1.902
REMARK  Name = ox2_shuffle_esm0_ligand
REMARK  5 active torsions:
REMARK  status: ('A' for Active; 'I' for Inactive)
REMARK    1  A    between atoms: C_1  and  O_2
REMARK    2  A    between atoms: O_2  and  C_3
REMARK    3  A    between atoms: C_6  and  C_7
REMARK    4  A    between atoms: C_7  and  C_9
REMARK    5  A    between atoms: C_15  and  O_16
REMARK                            x       y       z     vdW  Elec       q    Type
REMARK                         _______ _______ _______ _____ _____    ______ ____
ROOT
ATOM      1  C   UNL     1       9.398  -9.878  -1.165  0.00  0.00    +0.000 A 
ATOM      2  C   UNL     1       8.103 -10.373  -1.072  0.00  0.00    +0.000 A 
ATOM      3  C   UNL     1       7.263 -10.290  -2.155  0.00  0.00    +0.000 A 
ATOM      4  C   UNL     1       7.685  -9.726  -3.337  0.00  0.00    +0.000 A 
ATOM      5  C   UNL     1       8.972  -9.213  -3.420  0.00  0.00    +0.000 A 
ATOM      6  C   UNL     1       9.823  -9.301  -2.336  0.00  0.00    +0.000 A 
ENDROOT
BRANCH   1   8
ATOM      7  C   UNL     1      11.216 -11.025  -0.048  0.00  0.00    +0.000 C 
ATOM      8  O   UNL     1      10.273  -9.953  -0.138  0.00  0.00    +0.000 OA
ENDBRANCH   1   8
BRANCH   4   9
ATOM      9  C   UNL     1       6.817  -9.631  -4.541  0.00  0.00    +0.000 C 
ATOM     10  O   UNL     1       7.004 -10.438  -5.417  0.00  0.00    +0.000 OA
BRANCH   9  11
ATOM     11  C   UNL     1       5.707  -8.675  -4.719  0.00  0.00    +0.000 A 
ATOM     12  C   UNL     1       4.436  -9.030  -4.270  0.00  0.00    +0.000 A 
ATOM     13  C   UNL     1       3.377  -8.159  -4.395  0.00  0.00    +0.000 A 
ATOM     14  C   UNL     1       3.556  -6.918  -4.972  0.00  0.00    +0.000 A 
ATOM     15  C   UNL     1       4.814  -6.554  -5.409  0.00  0.00    +0.000 A 
ATOM     16  C   UNL     1       5.877  -7.428  -5.271  0.00  0.00    +0.000 A 
ENDBRANCH   9  11
ENDBRANCH   4   9
BRANCH   5  17
ATOM     17  O   UNL     1       9.370  -8.634  -4.585  0.00  0.00    +0.000 OA
ATOM     18  H   UNL     1       8.999  -8.952  -5.447  0.00  0.00    +0.000 HD
ENDBRANCH   5  17
TORSDOF 4
ENDMDL
MODEL 3
REMARK VINA RESULT:      -4.5      4.737      7.492
REMARK  Name = ox2_shuffle_esm0_ligand
REMARK  5 active torsions:
REMARK  status: ('A' for Active; 'I' for Inactive)
REMARK    1  A    between atoms: C_1  and  O_2
REMARK    2  A    between atoms: O_2  and  C_3
REMARK    3  A    between atoms: C_6  and  C_7
REMARK    4  A    between atoms: C_7  and  C_9
REMARK    5  A    between atoms: C_15  and  O_16
REMARK                            x       y       z     vdW  Elec       q    Type
REMARK                         _______ _______ _______ _____ _____    ______ ____
ROOT
ATOM      1  C   UNL     1       2.781  -7.651  -3.809  0.00  0.00    +0.000 A 
ATOM      2  C   UNL     1       2.221  -6.501  -3.268  0.00  0.00    +0.000 A 
ATOM      3  C   UNL     1       1.446  -6.587  -2.138  0.00  0.00    +0.000 A 
ATOM      4  C   UNL     1       1.219  -7.798  -1.527  0.00  0.00    +0.000 A 
ATOM      5  C   UNL     1       1.762  -8.949  -2.082  0.00  0.00    +0.000 A 
ATOM      6  C   UNL     1       2.548  -8.866  -3.215  0.00  0.00    +0.000 A 
ENDROOT
BRANCH   1   8
ATOM      7  C   UNL     1       4.556  -6.602  -5.081  0.00  0.00    +0.000 C 
ATOM      8  O   UNL     1       3.568  -7.622  -4.909  0.00  0.00    +0.000 OA
ENDBRANCH   1   8
BRANCH   4   9
ATOM      9  C   UNL     1       0.403  -7.938  -0.290  0.00  0.00    +0.000 C 
ATOM     10  O   UNL     1       0.972  -8.316   0.703  0.00  0.00    +0.000 OA
BRANCH   9  11
ATOM     11  C   UNL     1      -1.025  -7.589  -0.167  0.00  0.00    +0.000 A 
ATOM     12  C   UNL     1      -1.372  -6.373   0.420  0.00  0.00    +0.000 A 
ATOM     13  C   UNL     1      -2.691  -5.997   0.533  0.00  0.00    +0.000 A 
ATOM     14  C   UNL     1      -3.697  -6.822   0.070  0.00  0.00    +0.000 A 
ATOM     15  C   UNL     1      -3.362  -8.023  -0.524  0.00  0.00    +0.000 A 
ATOM     16  C   UNL     1      -2.034  -8.390  -0.646  0.00  0.00    +0.000 A 
ENDBRANCH   9  11
ENDBRANCH   4   9
BRANCH   5  17
ATOM     17  O   UNL     1       1.508 -10.144  -1.483  0.00  0.00    +0.000 OA
ATOM     18  H   UNL     1       1.016 -10.173  -0.624  0.00  0.00    +0.000 HD
ENDBRANCH   5  17
TORSDOF 4
ENDMDL
MODEL 4
REMARK VINA RESULT:      -4.5      6.426     10.070
REMARK  Name = ox2_shuffle_esm0_ligand
REMARK  5 active torsions:
REMARK  status: ('A' for Active; 'I' for Inactive)
REMARK    1  A    between atoms: C_1  and  O_2
REMARK    2  A    between atoms: O_2  and  C_3
REMARK    3  A    between atoms: C_6  and  C_7
REMARK    4  A    between atoms: C_7  and  C_9
REMARK    5  A    between atoms: C_15  and  O_16
REMARK                            x       y       z     vdW  Elec       q    Type
REMARK                         _______ _______ _______ _____ _____    ______ ____
ROOT
ATOM      1  C   UNL     1      -3.894  -7.200   0.209  0.00  0.00    +0.000 A 
ATOM      2  C   UNL     1      -3.439  -8.388  -0.351  0.00  0.00    +0.000 A 
ATOM      3  C   UNL     1      -2.094  -8.580  -0.542  0.00  0.00    +0.000 A 
ATOM      4  C   UNL     1      -1.183  -7.613  -0.183  0.00  0.00    +0.000 A 
ATOM      5  C   UNL     1      -1.641  -6.418   0.356  0.00  0.00    +0.000 A 
ATOM      6  C   UNL     1      -2.994  -6.224   0.557  0.00  0.00    +0.000 A 
ENDROOT
BRANCH   1   8
ATOM      7  C   UNL     1      -5.916  -7.684   1.452  0.00  0.00    +0.000 C 
ATOM      8  O   UNL     1      -5.206  -6.967   0.439  0.00  0.00    +0.000 OA
ENDBRANCH   1   8
BRANCH   4   9
ATOM      9  C   UNL     1       0.285  -7.784  -0.354  0.00  0.00    +0.000 C 
ATOM     10  O   UNL     1       0.926  -8.044   0.634  0.00  0.00    +0.000 OA
BRANCH   9  11
ATOM     11  C   UNL     1       1.007  -7.726  -1.640  0.00  0.00    +0.000 A 
ATOM     12  C   UNL     1       1.141  -8.895  -2.388  0.00  0.00    +0.000 A 
ATOM     13  C   UNL     1       1.786  -8.881  -3.604  0.00  0.00    +0.000 A 
ATOM     14  C   UNL     1       2.315  -7.708  -4.103  0.00  0.00    +0.000 A 
ATOM     15  C   UNL     1       2.176  -6.543  -3.374  0.00  0.00    +0.000 A 
ATOM     16  C   UNL     1       1.517  -6.560  -2.158  0.00  0.00    +0.000 A 
ENDBRANCH   9  11
ENDBRANCH   4   9
BRANCH   5  17
ATOM     17  O   UNL     1      -0.733  -5.459   0.683  0.00  0.00    +0.000 OA
ATOM     18  H   UNL     1       0.130  -5.715   1.097  0.00  0.00    +0.000 HD
ENDBRANCH   5  17
TORSDOF 4
ENDMDL
MODEL 5
REMARK VINA RESULT:      -4.4      9.615     11.381
REMARK  Name = ox2_shuffle_esm0_ligand
REMARK  5 active torsions:
REMARK  status: ('A' for Active; 'I' for Inactive)
REMARK    1  A    between atoms: C_1  and  O_2
REMARK    2  A    between atoms: O_2  and  C_3
REMARK    3  A    between atoms: C_6  and  C_7
REMARK    4  A    between atoms: C_7  and  C_9
REMARK    5  A    between atoms: C_15  and  O_16
REMARK                            x       y       z     vdW  Elec       q    Type
REMARK                         _______ _______ _______ _____ _____    ______ ____
ROOT
ATOM      1  C   UNL     1      -1.460  -7.116   0.833  0.00  0.00    +0.000 A 
ATOM      2  C   UNL     1      -2.142  -5.907   0.880  0.00  0.00    +0.000 A 
ATOM      3  C   UNL     1      -3.342  -5.776   0.228  0.00  0.00    +0.000 A 
ATOM      4  C   UNL     1      -3.886  -6.829  -0.471  0.00  0.00    +0.000 A 
ATOM      5  C   UNL     1      -3.192  -8.030  -0.535  0.00  0.00    +0.000 A 
ATOM      6  C   UNL     1      -1.987  -8.168   0.127  0.00  0.00    +0.000 A 
ENDROOT
BRANCH   1   8
ATOM      7  C   UNL     1      -0.153  -8.298   2.496  0.00  0.00    +0.000 C 
ATOM      8  O   UNL     1      -0.284  -7.306   1.475  0.00  0.00    +0.000 OA
ENDBRANCH   1   8
BRANCH   4   9
ATOM      9  C   UNL     1      -5.193  -6.740  -1.177  0.00  0.00    +0.000 C 
ATOM     10  O   UNL     1      -6.147  -7.230  -0.628  0.00  0.00    +0.000 OA
BRANCH   9  11
ATOM     11  C   UNL     1      -5.424  -6.046  -2.459  0.00  0.00    +0.000 A 
ATOM     12  C   UNL     1      -5.604  -4.663  -2.450  0.00  0.00    +0.000 A 
ATOM     13  C   UNL     1      -5.799  -3.973  -3.625  0.00  0.00    +0.000 A 
ATOM     14  C   UNL     1      -5.824  -4.639  -4.834  0.00  0.00    +0.000 A 
ATOM     15  C   UNL     1      -5.635  -6.007  -4.852  0.00  0.00    +0.000 A 
ATOM     16  C   UNL     1      -5.427  -6.695  -3.669  0.00  0.00    +0.000 A 
ENDBRANCH   9  11
ENDBRANCH   4   9
BRANCH   5  17
ATOM     17  O   UNL     1      -3.727  -9.056  -1.251  0.00  0.00    +0.000 OA
ATOM     18  H   UNL     1      -4.614  -9.422  -1.004  0.00  0.00    +0.000 HD
ENDBRANCH   5  17
TORSDOF 4
ENDMDL
MODEL 6
REMARK VINA RESULT:      -4.3      2.880      6.488
REMARK  Name = ox2_shuffle_esm0_ligand
REMARK  5 active torsions:
REMARK  status: ('A' for Active; 'I' for Inactive)
REMARK    1  A    between atoms: C_1  and  O_2
REMARK    2  A    between atoms: O_2  and  C_3
REMARK    3  A    between atoms: C_6  and  C_7
REMARK    4  A    between atoms: C_7  and  C_9
REMARK    5  A    between atoms: C_15  and  O_16
REMARK                            x       y       z     vdW  Elec       q    Type
REMARK                         _______ _______ _______ _____ _____    ______ ____
ROOT
ATOM      1  C   UNL     1       1.157  -7.529  -1.614  0.00  0.00    +0.000 A 
ATOM      2  C   UNL     1       1.471  -8.877  -1.489  0.00  0.00    +0.000 A 
ATOM      3  C   UNL     1       2.338  -9.459  -2.380  0.00  0.00    +0.000 A 
ATOM      4  C   UNL     1       2.908  -8.725  -3.395  0.00  0.00    +0.000 A 
ATOM      5  C   UNL     1       2.577  -7.384  -3.530  0.00  0.00    +0.000 A 
ATOM      6  C   UNL     1       1.710  -6.793  -2.632  0.00  0.00    +0.000 A 
ENDROOT
BRANCH   1   8
ATOM      7  C   UNL     1      -0.738  -7.605  -0.106  0.00  0.00    +0.000 C 
ATOM      8  O   UNL     1       0.325  -6.900  -0.752  0.00  0.00    +0.000 OA
ENDBRANCH   1   8
BRANCH   4   9
ATOM      9  C   UNL     1       3.868  -9.308  -4.371  0.00  0.00    +0.000 C 
ATOM     10  O   UNL     1       3.415  -9.704  -5.416  0.00  0.00    +0.000 OA
BRANCH   9  11
ATOM     11  C   UNL     1       5.331  -9.380  -4.190  0.00  0.00    +0.000 A 
ATOM     12  C   UNL     1       5.846 -10.233  -3.215  0.00  0.00    +0.000 A 
ATOM     13  C   UNL     1       7.205 -10.349  -3.029  0.00  0.00    +0.000 A 
ATOM     14  C   UNL     1       8.083  -9.618  -3.803  0.00  0.00    +0.000 A 
ATOM     15  C   UNL     1       7.582  -8.779  -4.780  0.00  0.00    +0.000 A 
ATOM     16  C   UNL     1       6.215  -8.676  -4.971  0.00  0.00    +0.000 A 
ENDBRANCH   9  11
ENDBRANCH   4   9
BRANCH   5  17
ATOM     17  O   UNL     1       3.126  -6.676  -4.553  0.00  0.00    +0.000 OA
ATOM     18  H   UNL     1       4.079  -6.808  -4.791  0.00  0.00    +0.000 HD
ENDBRANCH   5  17
TORSDOF 4
ENDMDL
MODEL 7
REMARK VINA RESULT:      -4.1      6.092      9.670
REMARK  Name = ox2_shuffle_esm0_ligand
REMARK  5 active torsions:
REMARK  status: ('A' for Active; 'I' for Inactive)
REMARK    1  A    between atoms: C_1  and  O_2
REMARK    2  A    between atoms: O_2  and  C_3
REMARK    3  A    between atoms: C_6  and  C_7
REMARK    4  A    between atoms: C_7  and  C_9
REMARK    5  A    between atoms: C_15  and  O_16
REMARK                            x       y       z     vdW  Elec       q    Type
REMARK                         _______ _______ _______ _____ _____    ______ ____
ROOT
ATOM      1  C   UNL     1      -3.355  -7.313   0.697  0.00  0.00    +0.000 A 
ATOM      2  C   UNL     1      -2.482  -6.238   0.593  0.00  0.00    +0.000 A 
ATOM      3  C   UNL     1      -1.188  -6.448   0.187  0.00  0.00    +0.000 A 
ATOM      4  C   UNL     1      -0.741  -7.712  -0.125  0.00  0.00    +0.000 A 
ATOM      5  C   UNL     1      -1.609  -8.787   0.000  0.00  0.00    +0.000 A 
ATOM      6  C   UNL     1      -2.915  -8.579   0.401  0.00  0.00    +0.000 A 
ENDROOT
BRANCH   1   8
ATOM      7  C   UNL     1      -5.022  -7.189   2.451  0.00  0.00    +0.000 C 
ATOM      8  O   UNL     1      -4.646  -7.160   1.072  0.00  0.00    +0.000 OA
ENDBRANCH   1   8
BRANCH   4   9
ATOM      9  C   UNL     1       0.646  -7.985  -0.588  0.00  0.00    +0.000 C 
ATOM     10  O   UNL     1       1.428  -8.394   0.234  0.00  0.00    +0.000 OA
BRANCH   9  11
ATOM     11  C   UNL     1       1.122  -7.861  -1.979  0.00  0.00    +0.000 A 
ATOM     12  C   UNL     1       1.844  -6.725  -2.343  0.00  0.00    +0.000 A 
ATOM     13  C   UNL     1       2.327  -6.579  -3.624  0.00  0.00    +0.000 A 
ATOM     14  C   UNL     1       2.100  -7.554  -4.573  0.00  0.00    +0.000 A 
ATOM     15  C   UNL     1       1.396  -8.688  -4.218  0.00  0.00    +0.000 A 
ATOM     16  C   UNL     1       0.923  -8.835  -2.926  0.00  0.00    +0.000 A 
ENDBRANCH   9  11
ENDBRANCH   4   9
BRANCH   5  17
ATOM     17  O   UNL     1      -1.149 -10.035  -0.286  0.00  0.00    +0.000 OA
ATOM     18  H   UNL     1      -0.889 -10.266  -1.214  0.00  0.00    +0.000 HD
ENDBRANCH   5  17
TORSDOF 4
ENDMDL
MODEL 8
REMARK VINA RESULT:      -4.0     11.889     14.307
REMARK  Name = ox2_shuffle_esm0_ligand
REMARK  5 active torsions:
REMARK  status: ('A' for Active; 'I' for Inactive)
REMARK    1  A    between atoms: C_1  and  O_2
REMARK    2  A    between atoms: O_2  and  C_3
REMARK    3  A    between atoms: C_6  and  C_7
REMARK    4  A    between atoms: C_7  and  C_9
REMARK    5  A    between atoms: C_15  and  O_16
REMARK                            x       y       z     vdW  Elec       q    Type
REMARK                         _______ _______ _______ _____ _____    ______ ____
ROOT
ATOM      1  C   UNL     1      -1.555  -6.208   2.646  0.00  0.00    +0.000 A 
ATOM      2  C   UNL     1      -2.277  -5.112   2.190  0.00  0.00    +0.000 A 
ATOM      3  C   UNL     1      -3.443  -4.755   2.821  0.00  0.00    +0.000 A 
ATOM      4  C   UNL     1      -3.907  -5.465   3.904  0.00  0.00    +0.000 A 
ATOM      5  C   UNL     1      -3.195  -6.572   4.345  0.00  0.00    +0.000 A 
ATOM      6  C   UNL     1      -2.017  -6.930   3.718  0.00  0.00    +0.000 A 
ENDROOT
BRANCH   1   8
ATOM      7  C   UNL     1       0.041  -7.954   2.120  0.00  0.00    +0.000 C 
ATOM      8  O   UNL     1      -0.389  -6.591   2.076  0.00  0.00    +0.000 OA
ENDBRANCH   1   8
BRANCH   4   9
ATOM      9  C   UNL     1      -5.155  -5.104   4.631  0.00  0.00    +0.000 C 
ATOM     10  O   UNL     1      -6.131  -5.777   4.412  0.00  0.00    +0.000 OA
BRANCH   9  11
ATOM     11  C   UNL     1      -5.275  -4.035   5.641  0.00  0.00    +0.000 A 
ATOM     12  C   UNL     1      -5.995  -2.885   5.320  0.00  0.00    +0.000 A 
ATOM     13  C   UNL     1      -6.152  -1.874   6.241  0.00  0.00    +0.000 A 
ATOM     14  C   UNL     1      -5.594  -1.980   7.499  0.00  0.00    +0.000 A 
ATOM     15  C   UNL     1      -4.889  -3.120   7.829  0.00  0.00    +0.000 A 
ATOM     16  C   UNL     1      -4.744  -4.139   6.904  0.00  0.00    +0.000 A 
ENDBRANCH   9  11
ENDBRANCH   4   9
BRANCH   5  17
ATOM     17  O   UNL     1      -3.677  -7.281   5.401  0.00  0.00    +0.000 OA
ATOM     18  H   UNL     1      -4.647  -7.266   5.606  0.00  0.00    +0.000 HD
ENDBRANCH   5  17
TORSDOF 4
ENDMDL
MODEL 9
REMARK VINA RESULT:      -4.0      1.664      2.705
REMARK  Name = ox2_shuffle_esm0_ligand
REMARK  5 active torsions:
REMARK  status: ('A' for Active; 'I' for Inactive)
REMARK    1  A    between atoms: C_1  and  O_2
REMARK    2  A    between atoms: O_2  and  C_3
REMARK    3  A    between atoms: C_6  and  C_7
REMARK    4  A    between atoms: C_7  and  C_9
REMARK    5  A    between atoms: C_15  and  O_16
REMARK                            x       y       z     vdW  Elec       q    Type
REMARK                         _______ _______ _______ _____ _____    ______ ____
ROOT
ATOM      1  C   UNL     1       7.908 -10.402  -2.907  0.00  0.00    +0.000 A 
ATOM      2  C   UNL     1       6.838 -10.979  -2.235  0.00  0.00    +0.000 A 
ATOM      3  C   UNL     1       5.553 -10.682  -2.616  0.00  0.00    +0.000 A 
ATOM      4  C   UNL     1       5.307  -9.822  -3.661  0.00  0.00    +0.000 A 
ATOM      5  C   UNL     1       6.377  -9.229  -4.317  0.00  0.00    +0.000 A 
ATOM      6  C   UNL     1       7.671  -9.531  -3.941  0.00  0.00    +0.000 A 
ENDROOT
BRANCH   1   8
ATOM      7  C   UNL     1       9.976  -9.753  -1.825  0.00  0.00    +0.000 C 
ATOM      8  O   UNL     1       9.193 -10.675  -2.587  0.00  0.00    +0.000 OA
ENDBRANCH   1   8
BRANCH   4   9
ATOM      9  C   UNL     1       3.933  -9.485  -4.122  0.00  0.00    +0.000 C 
ATOM     10  O   UNL     1       3.565  -9.980  -5.158  0.00  0.00    +0.000 OA
BRANCH   9  11
ATOM     11  C   UNL     1       2.966  -8.650  -3.384  0.00  0.00    +0.000 A 
ATOM     12  C   UNL     1       2.253  -9.220  -2.330  0.00  0.00    +0.000 A 
ATOM     13  C   UNL     1       1.359  -8.471  -1.600  0.00  0.00    +0.000 A 
ATOM     14  C   UNL     1       1.149  -7.140  -1.901  0.00  0.00    +0.000 A 
ATOM     15  C   UNL     1       1.860  -6.564  -2.935  0.00  0.00    +0.000 A 
ATOM     16  C   UNL     1       2.767  -7.319  -3.658  0.00  0.00    +0.000 A 
ENDBRANCH   9  11
ENDBRANCH   4   9
BRANCH   5  17
ATOM     17  O   UNL     1       6.120  -8.360  -5.332  0.00  0.00    +0.000 OA
ATOM     18  H   UNL     1       6.206  -8.658  -6.273  0.00  0.00    +0.000 HD
ENDBRANCH   5  17
TORSDOF 4
ENDMDL
