REMARK  Name = bg33_4_ligand
REMARK  12 active torsions:
REMARK  status: ('A' for Active; 'I' for Inactive)
REMARK    1  A    between atoms: C_1  and  C_2
REMARK    2  A    between atoms: C_2  and  C_3
REMARK    3  A    between atoms: C_3  and  C_4
REMARK    4  A    between atoms: C_4  and  C_5
REMARK    5  A    between atoms: C_5  and  C_6
REMARK    6  A    between atoms: C_5  and  O_8
REMARK    7  A    between atoms: C_6  and  C_7
REMARK    8  A    between atoms: O_8  and  C_9
REMARK    9  A    between atoms: C_9  and  C_11
REMARK   10  A    between atoms: C_12  and  C_13
REMARK   11  A    between atoms: C_16  and  O_17
REMARK   12  A    between atoms: O_17  and  C_18
REMARK                            x       y       z     vdW  Elec       q    Type
REMARK                         _______ _______ _______ _____ _____    ______ ____
ROOT
ATOM      1  C   UNL     1      -5.188  -7.079   2.247  0.00  0.00    +0.000 C 
ATOM      2  O   UNL     1      -6.363  -7.534   2.390  0.00  0.00    +0.000 OA
ENDROOT
BRANCH   1   3
ATOM      3  C   UNL     1      -4.792  -6.198   1.137  0.00  0.00    +0.000 C 
ATOM      4  C   UNL     1      -3.397  -5.904   0.974  0.00  0.00    +0.000 C 
BRANCH   4   5
ATOM      5  C   UNL     1      -2.926  -4.919  -0.084  0.00  0.00    +0.000 A 
ATOM      6  C   UNL     1      -3.588  -4.740  -1.280  0.00  0.00    +0.000 A 
ATOM      7  C   UNL     1      -3.120  -3.798  -2.260  0.00  0.00    +0.000 A 
ATOM      8  C   UNL     1      -1.983  -3.000  -2.040  0.00  0.00    +0.000 A 
ATOM      9  C   UNL     1      -1.344  -3.188  -0.817  0.00  0.00    +0.000 A 
ATOM     10  C   UNL     1      -1.807  -4.104   0.137  0.00  0.00    +0.000 A 
BRANCH   8  11
ATOM     11  O   UNL     1      -1.521  -2.039  -2.917  0.00  0.00    +0.000 OA
ATOM     12  C   UNL     1      -2.274  -1.786  -4.130  0.00  0.00    +0.000 C 
ENDBRANCH   8  11
ENDBRANCH   4   5
ENDBRANCH   1   3
BRANCH   1  13
ATOM     13  O   UNL     1      -4.180  -7.293   3.289  0.00  0.00    +0.000 OA
BRANCH  13  14
ATOM     14  C   UNL     1      -4.389  -8.275   4.247  0.00  0.00    +0.000 C 
BRANCH  14  15
ATOM     15  C   UNL     1      -5.035  -7.445   5.394  0.00  0.00    +0.000 C 
ATOM     16  C   UNL     1      -5.735  -8.363   6.448  0.00  0.00    +0.000 C 
ENDBRANCH  14  15
BRANCH  14  17
ATOM     17  C   UNL     1      -2.987  -8.951   4.614  0.00  0.00    +0.000 C 
BRANCH  17  18
ATOM     18  C   UNL     1      -2.054  -8.898   3.432  0.00  0.00    +0.000 C 
BRANCH  18  20
ATOM     19  C   UNL     1       0.178  -9.682   2.521  0.00  0.00    +0.000 C 
ATOM     20  C   UNL     1      -0.875  -9.857   3.580  0.00  0.00    +0.000 C 
ENDBRANCH  18  20
ENDBRANCH  17  18
ENDBRANCH  14  17
ENDBRANCH  13  14
ENDBRANCH   1  13
TORSDOF 9
