MODEL 1
REMARK VINA RESULT:      -4.2      0.000      0.000
REMARK  Name = bg33_4_ligand
REMARK  12 active torsions:
REMARK  status: ('A' for Active; 'I' for Inactive)
REMARK    1  A    between atoms: C_1  and  C_2
REMARK    2  A    between atoms: C_2  and  C_3
REMARK    3  A    between atoms: C_3  and  C_4
REMARK    4  A    between atoms: C_4  and  C_5
REMARK    5  A    between atoms: C_5  and  C_6
REMARK    6  A    between atoms: C_5  and  O_8
REMARK    7  A    between atoms: C_6  and  C_7
REMARK    8  A    between atoms: O_8  and  C_9
REMARK    9  A    between atoms: C_9  and  C_11
REMARK   10  A    between atoms: C_12  and  C_13
REMARK   11  A    between atoms: C_16  and  O_17
REMARK   12  A    between atoms: O_17  and  C_18
REMARK                            x       y       z     vdW  Elec       q    Type
REMARK                         _______ _______ _______ _____ _____    ______ ____
ROOT
ATOM      1  C   UNL     1      -1.799  -3.724   0.989  0.00  0.00    +0.000 C 
ATOM      2  O   UNL     1      -1.876  -2.550   0.517  0.00  0.00    +0.000 OA
ENDROOT
BRANCH   1   3
ATOM      3  C   UNL     1      -0.821  -4.720   0.523  0.00  0.00    +0.000 C 
ATOM      4  C   UNL     1      -1.129  -5.463  -0.666  0.00  0.00    +0.000 C 
BRANCH   4   5
ATOM      5  C   UNL     1      -0.216  -6.580  -1.146  0.00  0.00    +0.000 A 
ATOM      6  C   UNL     1       1.095  -6.363  -1.510  0.00  0.00    +0.000 A 
ATOM      7  C   UNL     1       1.935  -7.441  -1.957  0.00  0.00    +0.000 A 
ATOM      8  C   UNL     1       1.470  -8.767  -2.023  0.00  0.00    +0.000 A 
ATOM      9  C   UNL     1       0.148  -8.960  -1.633  0.00  0.00    +0.000 A 
ATOM     10  C   UNL     1      -0.665  -7.907  -1.193  0.00  0.00    +0.000 A 
BRANCH   8  11
ATOM     11  O   UNL     1       2.246  -9.849  -2.388  0.00  0.00    +0.000 OA
ATOM     12  C   UNL     1       1.827 -11.174  -1.974  0.00  0.00    +0.000 C 
ENDBRANCH   8  11
ENDBRANCH   4   5
ENDBRANCH   1   3
BRANCH   1  13
ATOM     13  O   UNL     1      -2.600  -4.107   2.155  0.00  0.00    +0.000 OA
BRANCH  13  14
ATOM     14  C   UNL     1      -3.963  -4.322   2.003  0.00  0.00    +0.000 C 
BRANCH  14  15
ATOM     15  C   UNL     1      -4.505  -3.796   3.364  0.00  0.00    +0.000 C 
ATOM     16  C   UNL     1      -6.035  -4.072   3.522  0.00  0.00    +0.000 C 
ENDBRANCH  14  15
BRANCH  14  17
ATOM     17  C   UNL     1      -4.217  -5.878   1.734  0.00  0.00    +0.000 C 
BRANCH  17  18
ATOM     18  C   UNL     1      -3.433  -6.714   2.712  0.00  0.00    +0.000 C 
BRANCH  18  20
ATOM     19  C   UNL     1      -2.070  -8.844   2.882  0.00  0.00    +0.000 C 
ATOM     20  C   UNL     1      -2.489  -7.690   2.015  0.00  0.00    +0.000 C 
ENDBRANCH  18  20
ENDBRANCH  17  18
ENDBRANCH  14  17
ENDBRANCH  13  14
ENDBRANCH   1  13
TORSDOF 9
ENDMDL
MODEL 2
REMARK VINA RESULT:      -4.2      3.102      7.918
REMARK  Name = bg33_4_ligand
REMARK  12 active torsions:
REMARK  status: ('A' for Active; 'I' for Inactive)
REMARK    1  A    between atoms: C_1  and  C_2
REMARK    2  A    between atoms: C_2  and  C_3
REMARK    3  A    between atoms: C_3  and  C_4
REMARK    4  A    between atoms: C_4  and  C_5
REMARK    5  A    between atoms: C_5  and  C_6
REMARK    6  A    between atoms: C_5  and  O_8
REMARK    7  A    between atoms: C_6  and  C_7
REMARK    8  A    between atoms: O_8  and  C_9
REMARK    9  A    between atoms: C_9  and  C_11
REMARK   10  A    between atoms: C_12  and  C_13
REMARK   11  A    between atoms: C_16  and  O_17
REMARK   12  A    between atoms: O_17  and  C_18
REMARK                            x       y       z     vdW  Elec       q    Type
REMARK                         _______ _______ _______ _____ _____    ______ ____
ROOT
ATOM      1  C   UNL     1      -4.232  -4.489   0.939  0.00  0.00    +0.000 C 
ATOM      2  O   UNL     1      -4.898  -5.464   0.475  0.00  0.00    +0.000 OA
ENDROOT
BRANCH   1   3
ATOM      3  C   UNL     1      -4.303  -4.058   2.344  0.00  0.00    +0.000 C 
ATOM      4  C   UNL     1      -3.967  -5.014   3.360  0.00  0.00    +0.000 C 
BRANCH   4   5
ATOM      5  C   UNL     1      -4.120  -4.671   4.833  0.00  0.00    +0.000 A 
ATOM      6  C   UNL     1      -4.706  -3.501   5.268  0.00  0.00    +0.000 A 
ATOM      7  C   UNL     1      -4.839  -3.206   6.668  0.00  0.00    +0.000 A 
ATOM      8  C   UNL     1      -4.401  -4.101   7.661  0.00  0.00    +0.000 A 
ATOM      9  C   UNL     1      -3.830  -5.283   7.195  0.00  0.00    +0.000 A 
ATOM     10  C   UNL     1      -3.707  -5.568   5.829  0.00  0.00    +0.000 A 
BRANCH   8  11
ATOM     11  O   UNL     1      -4.555  -3.900   9.018  0.00  0.00    +0.000 OA
ATOM     12  C   UNL     1      -3.538  -4.412   9.916  0.00  0.00    +0.000 C 
ENDBRANCH   8  11
ENDBRANCH   4   5
ENDBRANCH   1   3
BRANCH   1  13
ATOM     13  O   UNL     1      -3.222  -3.823   0.112  0.00  0.00    +0.000 OA
BRANCH  13  14
ATOM     14  C   UNL     1      -2.093  -3.287   0.716  0.00  0.00    +0.000 C 
BRANCH  14  15
ATOM     15  C   UNL     1      -1.669  -2.218  -0.333  0.00  0.00    +0.000 C 
ATOM     16  C   UNL     1      -2.876  -1.326  -0.770  0.00  0.00    +0.000 C 
ENDBRANCH  14  15
BRANCH  14  17
ATOM     17  C   UNL     1      -1.027  -4.455   0.955  0.00  0.00    +0.000 C 
BRANCH  17  18
ATOM     18  C   UNL     1      -0.110  -4.578  -0.234  0.00  0.00    +0.000 C 
BRANCH  18  20
ATOM     19  C   UNL     1       1.329  -6.376  -1.295  0.00  0.00    +0.000 C 
ATOM     20  C   UNL     1      -0.027  -6.011  -0.757  0.00  0.00    +0.000 C 
ENDBRANCH  18  20
ENDBRANCH  17  18
ENDBRANCH  14  17
ENDBRANCH  13  14
ENDBRANCH   1  13
TORSDOF 9
ENDMDL
MODEL 3
REMARK VINA RESULT:      -4.2      7.024      9.371
REMARK  Name = bg33_4_ligand
REMARK  12 active torsions:
REMARK  status: ('A' for Active; 'I' for Inactive)
REMARK    1  A    between atoms: C_1  and  C_2
REMARK    2  A    between atoms: C_2  and  C_3
REMARK    3  A    between atoms: C_3  and  C_4
REMARK    4  A    between atoms: C_4  and  C_5
REMARK    5  A    between atoms: C_5  and  C_6
REMARK    6  A    between atoms: C_5  and  O_8
REMARK    7  A    between atoms: C_6  and  C_7
REMARK    8  A    between atoms: O_8  and  C_9
REMARK    9  A    between atoms: C_9  and  C_11
REMARK   10  A    between atoms: C_12  and  C_13
REMARK   11  A    between atoms: C_16  and  O_17
REMARK   12  A    between atoms: O_17  and  C_18
REMARK                            x       y       z     vdW  Elec       q    Type
REMARK                         _______ _______ _______ _____ _____    ______ ____
ROOT
ATOM      1  C   UNL     1      -3.236   0.107  -5.859  0.00  0.00    +0.000 C 
ATOM      2  O   UNL     1      -2.608  -0.332  -6.869  0.00  0.00    +0.000 OA
ENDROOT
BRANCH   1   3
ATOM      3  C   UNL     1      -2.934  -0.302  -4.478  0.00  0.00    +0.000 C 
ATOM      4  C   UNL     1      -2.603  -1.678  -4.239  0.00  0.00    +0.000 C 
BRANCH   4   5
ATOM      5  C   UNL     1      -2.383  -2.193  -2.826  0.00  0.00    +0.000 A 
ATOM      6  C   UNL     1      -2.390  -3.536  -2.514  0.00  0.00    +0.000 A 
ATOM      7  C   UNL     1      -2.175  -3.992  -1.168  0.00  0.00    +0.000 A 
ATOM      8  C   UNL     1      -1.926  -3.099  -0.111  0.00  0.00    +0.000 A 
ATOM      9  C   UNL     1      -1.906  -1.750  -0.457  0.00  0.00    +0.000 A 
ATOM     10  C   UNL     1      -2.111  -1.310  -1.771  0.00  0.00    +0.000 A 
BRANCH   8  11
ATOM     11  O   UNL     1      -1.655  -3.481   1.187  0.00  0.00    +0.000 OA
ATOM     12  C   UNL     1      -2.650  -4.252   1.907  0.00  0.00    +0.000 C 
ENDBRANCH   8  11
ENDBRANCH   4   5
ENDBRANCH   1   3
BRANCH   1  13
ATOM     13  O   UNL     1      -4.220   1.182  -6.010  0.00  0.00    +0.000 OA
BRANCH  13  14
ATOM     14  C   UNL     1      -4.083   2.341  -5.260  0.00  0.00    +0.000 C 
BRANCH  14  15
ATOM     15  C   UNL     1      -5.568   2.666  -4.929  0.00  0.00    +0.000 C 
ATOM     16  C   UNL     1      -5.936   2.262  -3.465  0.00  0.00    +0.000 C 
ENDBRANCH  14  15
BRANCH  14  17
ATOM     17  C   UNL     1      -3.334   3.446  -6.141  0.00  0.00    +0.000 C 
BRANCH  17  18
ATOM     18  C   UNL     1      -1.886   3.546  -5.736  0.00  0.00    +0.000 C 
BRANCH  18  20
ATOM     19  C   UNL     1      -1.495   2.885  -8.152  0.00  0.00    +0.000 C 
ATOM     20  C   UNL     1      -0.953   2.887  -6.750  0.00  0.00    +0.000 C 
ENDBRANCH  18  20
ENDBRANCH  17  18
ENDBRANCH  14  17
ENDBRANCH  13  14
ENDBRANCH   1  13
TORSDOF 9
ENDMDL
MODEL 4
REMARK VINA RESULT:      -4.2      2.302      7.777
REMARK  Name = bg33_4_ligand
REMARK  12 active torsions:
REMARK  status: ('A' for Active; 'I' for Inactive)
REMARK    1  A    between atoms: C_1  and  C_2
REMARK    2  A    between atoms: C_2  and  C_3
REMARK    3  A    between atoms: C_3  and  C_4
REMARK    4  A    between atoms: C_4  and  C_5
REMARK    5  A    between atoms: C_5  and  C_6
REMARK    6  A    between atoms: C_5  and  O_8
REMARK    7  A    between atoms: C_6  and  C_7
REMARK    8  A    between atoms: O_8  and  C_9
REMARK    9  A    between atoms: C_9  and  C_11
REMARK   10  A    between atoms: C_12  and  C_13
REMARK   11  A    between atoms: C_16  and  O_17
REMARK   12  A    between atoms: O_17  and  C_18
REMARK                            x       y       z     vdW  Elec       q    Type
REMARK                         _______ _______ _______ _____ _____    ______ ____
ROOT
ATOM      1  C   UNL     1       1.629  -8.205  -2.255  0.00  0.00    +0.000 C 
ATOM      2  O   UNL     1       2.098  -9.361  -2.028  0.00  0.00    +0.000 OA
ENDROOT
BRANCH   1   3
ATOM      3  C   UNL     1       0.532  -7.610  -1.475  0.00  0.00    +0.000 C 
ATOM      4  C   UNL     1       0.672  -6.250  -1.042  0.00  0.00    +0.000 C 
BRANCH   4   5
ATOM      5  C   UNL     1      -0.372  -5.605  -0.144  0.00  0.00    +0.000 A 
ATOM      6  C   UNL     1      -0.501  -4.239  -0.017  0.00  0.00    +0.000 A 
ATOM      7  C   UNL     1      -1.501  -3.659   0.838  0.00  0.00    +0.000 A 
ATOM      8  C   UNL     1      -2.408  -4.451   1.565  0.00  0.00    +0.000 A 
ATOM      9  C   UNL     1      -2.267  -5.827   1.404  0.00  0.00    +0.000 A 
ATOM     10  C   UNL     1      -1.293  -6.387   0.566  0.00  0.00    +0.000 A 
BRANCH   8  11
ATOM     11  O   UNL     1      -3.425  -3.951   2.354  0.00  0.00    +0.000 OA
ATOM     12  C   UNL     1      -4.791  -4.066   1.882  0.00  0.00    +0.000 C 
ENDBRANCH   8  11
ENDBRANCH   4   5
ENDBRANCH   1   3
BRANCH   1  13
ATOM     13  O   UNL     1       2.274  -7.323  -3.232  0.00  0.00    +0.000 OA
BRANCH  13  14
ATOM     14  C   UNL     1       1.783  -7.271  -4.529  0.00  0.00    +0.000 C 
BRANCH  14  15
ATOM     15  C   UNL     1       2.809  -8.172  -5.276  0.00  0.00    +0.000 C 
ATOM     16  C   UNL     1       4.281  -7.732  -4.990  0.00  0.00    +0.000 C 
ENDBRANCH  14  15
BRANCH  14  17
ATOM     17  C   UNL     1       1.751  -5.747  -5.012  0.00  0.00    +0.000 C 
BRANCH  17  18
ATOM     18  C   UNL     1       0.358  -5.362  -5.440  0.00  0.00    +0.000 C 
BRANCH  18  20
ATOM     19  C   UNL     1      -1.539  -5.075  -3.784  0.00  0.00    +0.000 C 
ATOM     20  C   UNL     1      -0.717  -6.039  -4.593  0.00  0.00    +0.000 C 
ENDBRANCH  18  20
ENDBRANCH  17  18
ENDBRANCH  14  17
ENDBRANCH  13  14
ENDBRANCH   1  13
TORSDOF 9
ENDMDL
MODEL 5
REMARK VINA RESULT:      -4.2      1.718      3.303
REMARK  Name = bg33_4_ligand
REMARK  12 active torsions:
REMARK  status: ('A' for Active; 'I' for Inactive)
REMARK    1  A    between atoms: C_1  and  C_2
REMARK    2  A    between atoms: C_2  and  C_3
REMARK    3  A    between atoms: C_3  and  C_4
REMARK    4  A    between atoms: C_4  and  C_5
REMARK    5  A    between atoms: C_5  and  C_6
REMARK    6  A    between atoms: C_5  and  O_8
REMARK    7  A    between atoms: C_6  and  C_7
REMARK    8  A    between atoms: O_8  and  C_9
REMARK    9  A    between atoms: C_9  and  C_11
REMARK   10  A    between atoms: C_12  and  C_13
REMARK   11  A    between atoms: C_16  and  O_17
REMARK   12  A    between atoms: O_17  and  C_18
REMARK                            x       y       z     vdW  Elec       q    Type
REMARK                         _______ _______ _______ _____ _____    ______ ____
ROOT
ATOM      1  C   UNL     1      -2.964  -6.973   2.447  0.00  0.00    +0.000 C 
ATOM      2  O   UNL     1      -3.311  -7.948   3.180  0.00  0.00    +0.000 OA
ENDROOT
BRANCH   1   3
ATOM      3  C   UNL     1      -1.764  -6.988   1.597  0.00  0.00    +0.000 C 
ATOM      4  C   UNL     1      -1.945  -7.050   0.175  0.00  0.00    +0.000 C 
BRANCH   4   5
ATOM      5  C   UNL     1      -0.751  -7.175  -0.759  0.00  0.00    +0.000 A 
ATOM      6  C   UNL     1       0.256  -6.236  -0.806  0.00  0.00    +0.000 A 
ATOM      7  C   UNL     1       1.375  -6.383  -1.698  0.00  0.00    +0.000 A 
ATOM      8  C   UNL     1       1.508  -7.498  -2.545  0.00  0.00    +0.000 A 
ATOM      9  C   UNL     1       0.486  -8.440  -2.463  0.00  0.00    +0.000 A 
ATOM     10  C   UNL     1      -0.600  -8.294  -1.589  0.00  0.00    +0.000 A 
BRANCH   8  11
ATOM     11  O   UNL     1       2.586  -7.723  -3.377  0.00  0.00    +0.000 OA
ATOM     12  C   UNL     1       2.769  -9.049  -3.933  0.00  0.00    +0.000 C 
ENDBRANCH   8  11
ENDBRANCH   4   5
ENDBRANCH   1   3
BRANCH   1  13
ATOM     13  O   UNL     1      -3.846  -5.813   2.294  0.00  0.00    +0.000 OA
BRANCH  13  14
ATOM     14  C   UNL     1      -3.352  -4.543   2.555  0.00  0.00    +0.000 C 
BRANCH  14  15
ATOM     15  C   UNL     1      -4.368  -4.036   3.619  0.00  0.00    +0.000 C 
ATOM     16  C   UNL     1      -3.906  -4.386   5.071  0.00  0.00    +0.000 C 
ENDBRANCH  14  15
BRANCH  14  17
ATOM     17  C   UNL     1      -3.330  -3.703   1.194  0.00  0.00    +0.000 C 
BRANCH  17  18
ATOM     18  C   UNL     1      -1.911  -3.398   0.789  0.00  0.00    +0.000 C 
BRANCH  18  20
ATOM     19  C   UNL     1      -1.897  -1.512  -0.905  0.00  0.00    +0.000 C 
ATOM     20  C   UNL     1      -1.800  -2.996  -0.680  0.00  0.00    +0.000 C 
ENDBRANCH  18  20
ENDBRANCH  17  18
ENDBRANCH  14  17
ENDBRANCH  13  14
ENDBRANCH   1  13
TORSDOF 9
ENDMDL
MODEL 6
REMARK VINA RESULT:      -4.1      6.761      9.230
REMARK  Name = bg33_4_ligand
REMARK  12 active torsions:
REMARK  status: ('A' for Active; 'I' for Inactive)
REMARK    1  A    between atoms: C_1  and  C_2
REMARK    2  A    between atoms: C_2  and  C_3
REMARK    3  A    between atoms: C_3  and  C_4
REMARK    4  A    between atoms: C_4  and  C_5
REMARK    5  A    between atoms: C_5  and  C_6
REMARK    6  A    between atoms: C_5  and  O_8
REMARK    7  A    between atoms: C_6  and  C_7
REMARK    8  A    between atoms: O_8  and  C_9
REMARK    9  A    between atoms: C_9  and  C_11
REMARK   10  A    between atoms: C_12  and  C_13
REMARK   11  A    between atoms: C_16  and  O_17
REMARK   12  A    between atoms: O_17  and  C_18
REMARK                            x       y       z     vdW  Elec       q    Type
REMARK                         _______ _______ _______ _____ _____    ______ ____
ROOT
ATOM      1  C   UNL     1      -3.180  -0.120  -6.116  0.00  0.00    +0.000 C 
ATOM      2  O   UNL     1      -3.315  -0.562  -7.297  0.00  0.00    +0.000 OA
ENDROOT
BRANCH   1   3
ATOM      3  C   UNL     1      -3.164  -0.986  -4.926  0.00  0.00    +0.000 C 
ATOM      4  C   UNL     1      -3.035  -0.362  -3.640  0.00  0.00    +0.000 C 
BRANCH   4   5
ATOM      5  C   UNL     1      -2.906  -1.199  -2.377  0.00  0.00    +0.000 A 
ATOM      6  C   UNL     1      -3.896  -2.058  -1.950  0.00  0.00    +0.000 A 
ATOM      7  C   UNL     1      -3.743  -2.838  -0.752  0.00  0.00    +0.000 A 
ATOM      8  C   UNL     1      -2.573  -2.783   0.026  0.00  0.00    +0.000 A 
ATOM      9  C   UNL     1      -1.582  -1.922  -0.438  0.00  0.00    +0.000 A 
ATOM     10  C   UNL     1      -1.734  -1.166  -1.608  0.00  0.00    +0.000 A 
BRANCH   8  11
ATOM     11  O   UNL     1      -2.345  -3.551   1.151  0.00  0.00    +0.000 OA
ATOM     12  C   UNL     1      -1.246  -4.496   1.135  0.00  0.00    +0.000 C 
ENDBRANCH   8  11
ENDBRANCH   4   5
ENDBRANCH   1   3
BRANCH   1  13
ATOM     13  O   UNL     1      -2.875   1.295  -5.886  0.00  0.00    +0.000 OA
BRANCH  13  14
ATOM     14  C   UNL     1      -3.725   2.266  -6.394  0.00  0.00    +0.000 C 
BRANCH  14  15
ATOM     15  C   UNL     1      -3.001   3.568  -5.943  0.00  0.00    +0.000 C 
ATOM     16  C   UNL     1      -1.483   3.317  -5.664  0.00  0.00    +0.000 C 
ENDBRANCH  14  15
BRANCH  14  17
ATOM     17  C   UNL     1      -5.184   2.059  -5.772  0.00  0.00    +0.000 C 
BRANCH  17  18
ATOM     18  C   UNL     1      -5.247   2.635  -4.381  0.00  0.00    +0.000 C 
BRANCH  18  20
ATOM     19  C   UNL     1      -5.671   1.525  -2.141  0.00  0.00    +0.000 C 
ATOM     20  C   UNL     1      -6.234   1.887  -3.488  0.00  0.00    +0.000 C 
ENDBRANCH  18  20
ENDBRANCH  17  18
ENDBRANCH  14  17
ENDBRANCH  13  14
ENDBRANCH   1  13
TORSDOF 9
ENDMDL
MODEL 7
REMARK VINA RESULT:      -4.1      2.523      6.901
REMARK  Name = bg33_4_ligand
REMARK  12 active torsions:
REMARK  status: ('A' for Active; 'I' for Inactive)
REMARK    1  A    between atoms: C_1  and  C_2
REMARK    2  A    between atoms: C_2  and  C_3
REMARK    3  A    between atoms: C_3  and  C_4
REMARK    4  A    between atoms: C_4  and  C_5
REMARK    5  A    between atoms: C_5  and  C_6
REMARK    6  A    between atoms: C_5  and  O_8
REMARK    7  A    between atoms: C_6  and  C_7
REMARK    8  A    between atoms: O_8  and  C_9
REMARK    9  A    between atoms: C_9  and  C_11
REMARK   10  A    between atoms: C_12  and  C_13
REMARK   11  A    between atoms: C_16  and  O_17
REMARK   12  A    between atoms: O_17  and  C_18
REMARK                            x       y       z     vdW  Elec       q    Type
REMARK                         _______ _______ _______ _____ _____    ______ ____
ROOT
ATOM      1  C   UNL     1      -1.821  -3.420   0.305  0.00  0.00    +0.000 C 
ATOM      2  O   UNL     1      -1.666  -2.175   0.120  0.00  0.00    +0.000 OA
ENDROOT
BRANCH   1   3
ATOM      3  C   UNL     1      -2.130  -4.010   1.617  0.00  0.00    +0.000 C 
ATOM      4  C   UNL     1      -3.502  -4.045   2.034  0.00  0.00    +0.000 C 
BRANCH   4   5
ATOM      5  C   UNL     1      -3.884  -4.542   3.419  0.00  0.00    +0.000 A 
ATOM      6  C   UNL     1      -4.235  -3.690   4.445  0.00  0.00    +0.000 A 
ATOM      7  C   UNL     1      -4.594  -4.191   5.743  0.00  0.00    +0.000 A 
ATOM      8  C   UNL     1      -4.627  -5.569   6.025  0.00  0.00    +0.000 A 
ATOM      9  C   UNL     1      -4.286  -6.407   4.967  0.00  0.00    +0.000 A 
ATOM     10  C   UNL     1      -3.941  -5.914   3.702  0.00  0.00    +0.000 A 
BRANCH   8  11
ATOM     11  O   UNL     1      -5.020  -6.110   7.233  0.00  0.00    +0.000 OA
ATOM     12  C   UNL     1      -4.136  -5.976   8.375  0.00  0.00    +0.000 C 
ENDBRANCH   8  11
ENDBRANCH   4   5
ENDBRANCH   1   3
BRANCH   1  13
ATOM     13  O   UNL     1      -1.847  -4.340  -0.836  0.00  0.00    +0.000 OA
BRANCH  13  14
ATOM     14  C   UNL     1      -1.564  -5.683  -0.635  0.00  0.00    +0.000 C 
BRANCH  14  15
ATOM     15  C   UNL     1      -0.505  -5.938  -1.746  0.00  0.00    +0.000 C 
ATOM     16  C   UNL     1       0.925  -6.138  -1.147  0.00  0.00    +0.000 C 
ENDBRANCH  14  15
BRANCH  14  17
ATOM     17  C   UNL     1      -2.913  -6.528  -0.785  0.00  0.00    +0.000 C 
BRANCH  17  18
ATOM     18  C   UNL     1      -3.047  -7.509   0.350  0.00  0.00    +0.000 C 
BRANCH  18  20
ATOM     19  C   UNL     1      -1.894  -8.543   2.357  0.00  0.00    +0.000 C 
ATOM     20  C   UNL     1      -1.787  -7.578   1.209  0.00  0.00    +0.000 C 
ENDBRANCH  18  20
ENDBRANCH  17  18
ENDBRANCH  14  17
ENDBRANCH  13  14
ENDBRANCH   1  13
TORSDOF 9
ENDMDL
MODEL 8
REMARK VINA RESULT:      -4.1      3.038      8.292
REMARK  Name = bg33_4_ligand
REMARK  12 active torsions:
REMARK  status: ('A' for Active; 'I' for Inactive)
REMARK    1  A    between atoms: C_1  and  C_2
REMARK    2  A    between atoms: C_2  and  C_3
REMARK    3  A    between atoms: C_3  and  C_4
REMARK    4  A    between atoms: C_4  and  C_5
REMARK    5  A    between atoms: C_5  and  C_6
REMARK    6  A    between atoms: C_5  and  O_8
REMARK    7  A    between atoms: C_6  and  C_7
REMARK    8  A    between atoms: O_8  and  C_9
REMARK    9  A    between atoms: C_9  and  C_11
REMARK   10  A    between atoms: C_12  and  C_13
REMARK   11  A    between atoms: C_16  and  O_17
REMARK   12  A    between atoms: O_17  and  C_18
REMARK                            x       y       z     vdW  Elec       q    Type
REMARK                         _______ _______ _______ _____ _____    ______ ____
ROOT
ATOM      1  C   UNL     1      -2.847  -7.342   1.720  0.00  0.00    +0.000 C 
ATOM      2  O   UNL     1      -3.489  -8.188   1.026  0.00  0.00    +0.000 OA
ENDROOT
BRANCH   1   3
ATOM      3  C   UNL     1      -3.265  -6.917   3.065  0.00  0.00    +0.000 C 
ATOM      4  C   UNL     1      -3.651  -5.547   3.250  0.00  0.00    +0.000 C 
BRANCH   4   5
ATOM      5  C   UNL     1      -3.992  -5.013   4.632  0.00  0.00    +0.000 A 
ATOM      6  C   UNL     1      -3.833  -5.762   5.779  0.00  0.00    +0.000 A 
ATOM      7  C   UNL     1      -4.162  -5.227   7.072  0.00  0.00    +0.000 A 
ATOM      8  C   UNL     1      -4.638  -3.914   7.235  0.00  0.00    +0.000 A 
ATOM      9  C   UNL     1      -4.772  -3.174   6.063  0.00  0.00    +0.000 A 
ATOM     10  C   UNL     1      -4.446  -3.698   4.805  0.00  0.00    +0.000 A 
BRANCH   8  11
ATOM     11  O   UNL     1      -4.914  -3.328   8.454  0.00  0.00    +0.000 OA
ATOM     12  C   UNL     1      -4.342  -3.912   9.651  0.00  0.00    +0.000 C 
ENDBRANCH   8  11
ENDBRANCH   4   5
ENDBRANCH   1   3
BRANCH   1  13
ATOM     13  O   UNL     1      -1.545  -6.847   1.265  0.00  0.00    +0.000 OA
BRANCH  13  14
ATOM     14  C   UNL     1      -1.491  -5.928   0.227  0.00  0.00    +0.000 C 
BRANCH  14  15
ATOM     15  C   UNL     1      -0.592  -6.681  -0.796  0.00  0.00    +0.000 C 
ATOM     16  C   UNL     1       0.778  -5.957  -1.004  0.00  0.00    +0.000 C 
ENDBRANCH  14  15
BRANCH  14  17
ATOM     17  C   UNL     1      -0.880  -4.557   0.777  0.00  0.00    +0.000 C 
BRANCH  17  18
ATOM     18  C   UNL     1      -1.892  -3.447   0.659  0.00  0.00    +0.000 C 
BRANCH  18  20
ATOM     19  C   UNL     1      -2.577  -1.422  -0.703  0.00  0.00    +0.000 C 
ATOM     20  C   UNL     1      -1.479  -2.392  -0.364  0.00  0.00    +0.000 C 
ENDBRANCH  18  20
ENDBRANCH  17  18
ENDBRANCH  14  17
ENDBRANCH  13  14
ENDBRANCH   1  13
TORSDOF 9
ENDMDL
MODEL 9
REMARK VINA RESULT:      -4.1      1.536      2.402
REMARK  Name = bg33_4_ligand
REMARK  12 active torsions:
REMARK  status: ('A' for Active; 'I' for Inactive)
REMARK    1  A    between atoms: C_1  and  C_2
REMARK    2  A    between atoms: C_2  and  C_3
REMARK    3  A    between atoms: C_3  and  C_4
REMARK    4  A    between atoms: C_4  and  C_5
REMARK    5  A    between atoms: C_5  and  C_6
REMARK    6  A    between atoms: C_5  and  O_8
REMARK    7  A    between atoms: C_6  and  C_7
REMARK    8  A    between atoms: O_8  and  C_9
REMARK    9  A    between atoms: C_9  and  C_11
REMARK   10  A    between atoms: C_12  and  C_13
REMARK   11  A    between atoms: C_16  and  O_17
REMARK   12  A    between atoms: O_17  and  C_18
REMARK                            x       y       z     vdW  Elec       q    Type
REMARK                         _______ _______ _______ _____ _____    ______ ____
ROOT
ATOM      1  C   UNL     1      -2.127  -3.926   1.251  0.00  0.00    +0.000 C 
ATOM      2  O   UNL     1      -1.914  -2.806   0.697  0.00  0.00    +0.000 OA
ENDROOT
BRANCH   1   3
ATOM      3  C   UNL     1      -1.484  -5.177   0.819  0.00  0.00    +0.000 C 
ATOM      4  C   UNL     1      -0.600  -5.126  -0.310  0.00  0.00    +0.000 C 
BRANCH   4   5
ATOM      5  C   UNL     1       0.016  -6.396  -0.876  0.00  0.00    +0.000 A 
ATOM      6  C   UNL     1      -0.668  -7.591  -0.933  0.00  0.00    +0.000 A 
ATOM      7  C   UNL     1      -0.060  -8.775  -1.478  0.00  0.00    +0.000 A 
ATOM      8  C   UNL     1       1.247  -8.767  -1.999  0.00  0.00    +0.000 A 
ATOM      9  C   UNL     1       1.908  -7.542  -1.945  0.00  0.00    +0.000 A 
ATOM     10  C   UNL     1       1.309  -6.391  -1.417  0.00  0.00    +0.000 A 
BRANCH   8  11
ATOM     11  O   UNL     1       1.860  -9.855  -2.587  0.00  0.00    +0.000 OA
ATOM     12  C   UNL     1       2.709  -9.633  -3.741  0.00  0.00    +0.000 C 
ENDBRANCH   8  11
ENDBRANCH   4   5
ENDBRANCH   1   3
BRANCH   1  13
ATOM     13  O   UNL     1      -2.929  -4.005   2.475  0.00  0.00    +0.000 OA
BRANCH  13  14
ATOM     14  C   UNL     1      -4.053  -4.818   2.502  0.00  0.00    +0.000 C 
BRANCH  14  15
ATOM     15  C   UNL     1      -5.189  -3.768   2.331  0.00  0.00    +0.000 C 
ATOM     16  C   UNL     1      -5.868  -3.875   0.927  0.00  0.00    +0.000 C 
ENDBRANCH  14  15
BRANCH  14  17
ATOM     17  C   UNL     1      -4.083  -5.621   3.884  0.00  0.00    +0.000 C 
BRANCH  17  18
ATOM     18  C   UNL     1      -4.753  -4.798   4.954  0.00  0.00    +0.000 C 
BRANCH  18  20
ATOM     19  C   UNL     1      -3.592  -5.460   7.108  0.00  0.00    +0.000 C 
ATOM     20  C   UNL     1      -3.787  -4.395   6.066  0.00  0.00    +0.000 C 
ENDBRANCH  18  20
ENDBRANCH  17  18
ENDBRANCH  14  17
ENDBRANCH  13  14
ENDBRANCH   1  13
TORSDOF 9
ENDMDL
