REMARK  Name = s2_esm2_control_ligand
REMARK  12 active torsions:
REMARK  status: ('A' for Active; 'I' for Inactive)
REMARK    1  A    between atoms: C_1  and  C_2
REMARK    2  A    between atoms: C_2  and  C_3
REMARK    3  A    between atoms: C_3  and  C_4
REMARK    4  A    between atoms: C_4  and  C_5
REMARK    5  A    between atoms: C_5  and  C_6
REMARK    6  A    between atoms: C_5  and  O_8
REMARK    7  A    between atoms: C_6  and  C_7
REMARK    8  A    between atoms: O_8  and  C_9
REMARK    9  A    between atoms: C_9  and  C_11
REMARK   10  A    between atoms: C_12  and  C_13
REMARK   11  A    between atoms: C_16  and  O_17
REMARK   12  A    between atoms: O_17  and  C_18
REMARK                            x       y       z     vdW  Elec       q    Type
REMARK                         _______ _______ _______ _____ _____    ______ ____
ROOT
ATOM      1  C   UNL     1      -6.054  -7.259  -8.152  0.00  0.00    +0.000 C 
ATOM      2  O   UNL     1      -6.592  -6.234  -8.476  0.00  0.00    +0.000 OA
ENDROOT
BRANCH   1   3
ATOM      3  C   UNL     1      -6.179  -7.857  -6.799  0.00  0.00    +0.000 C 
ATOM      4  C   UNL     1      -6.957  -7.223  -5.877  0.00  0.00    +0.000 C 
BRANCH   4   5
ATOM      5  C   UNL     1      -7.193  -7.741  -4.515  0.00  0.00    +0.000 A 
ATOM      6  C   UNL     1      -7.967  -6.983  -3.654  0.00  0.00    +0.000 A 
ATOM      7  C   UNL     1      -8.235  -7.425  -2.372  0.00  0.00    +0.000 A 
ATOM      8  C   UNL     1      -7.738  -8.624  -1.932  0.00  0.00    +0.000 A 
ATOM      9  C   UNL     1      -6.970  -9.383  -2.786  0.00  0.00    +0.000 A 
ATOM     10  C   UNL     1      -6.698  -8.938  -4.074  0.00  0.00    +0.000 A 
BRANCH   8  11
ATOM     11  O   UNL     1      -8.033  -9.013  -0.669  0.00  0.00    +0.000 OA
ATOM     12  C   UNL     1      -7.618 -10.291  -0.206  0.00  0.00    +0.000 C 
ENDBRANCH   8  11
ENDBRANCH   4   5
ENDBRANCH   1   3
BRANCH   1  13
ATOM     13  O   UNL     1      -5.303  -7.956  -9.029  0.00  0.00    +0.000 OA
BRANCH  13  14
ATOM     14  C   UNL     1      -5.182  -7.495 -10.363  0.00  0.00    +0.000 C 
BRANCH  14  15
ATOM     15  C   UNL     1      -3.698  -7.363 -10.699  0.00  0.00    +0.000 C 
ATOM     16  C   UNL     1      -3.261  -5.952 -11.052  0.00  0.00    +0.000 C 
ENDBRANCH  14  15
BRANCH  14  17
ATOM     17  C   UNL     1      -5.834  -8.480 -11.302  0.00  0.00    +0.000 C 
BRANCH  17  18
ATOM     18  C   UNL     1      -7.239  -8.838 -10.929  0.00  0.00    +0.000 C 
BRANCH  18  20
ATOM     19  C   UNL     1      -9.264 -10.188 -11.477  0.00  0.00    +0.000 C 
ATOM     20  C   UNL     1      -7.870  -9.765 -11.925  0.00  0.00    +0.000 C 
ENDBRANCH  18  20
ENDBRANCH  17  18
ENDBRANCH  14  17
ENDBRANCH  13  14
ENDBRANCH   1  13
TORSDOF 9
