MODEL 1
REMARK VINA RESULT:      -4.8      0.000      0.000
REMARK  Name = s2_esm2_control_ligand
REMARK  12 active torsions:
REMARK  status: ('A' for Active; 'I' for Inactive)
REMARK    1  A    between atoms: C_1  and  C_2
REMARK    2  A    between atoms: C_2  and  C_3
REMARK    3  A    between atoms: C_3  and  C_4
REMARK    4  A    between atoms: C_4  and  C_5
REMARK    5  A    between atoms: C_5  and  C_6
REMARK    6  A    between atoms: C_5  and  O_8
REMARK    7  A    between atoms: C_6  and  C_7
REMARK    8  A    between atoms: O_8  and  C_9
REMARK    9  A    between atoms: C_9  and  C_11
REMARK   10  A    between atoms: C_12  and  C_13
REMARK   11  A    between atoms: C_16  and  O_17
REMARK   12  A    between atoms: O_17  and  C_18
REMARK                            x       y       z     vdW  Elec       q    Type
REMARK                         _______ _______ _______ _____ _____    ______ ____
ROOT
ATOM      1  C   UNL     1      -7.392  -6.772   3.310  0.00  0.00    +0.000 C 
ATOM      2  O   UNL     1      -8.307  -7.293   3.891  0.00  0.00    +0.000 OA
ENDROOT
BRANCH   1   3
ATOM      3  C   UNL     1      -6.983  -7.139   1.931  0.00  0.00    +0.000 C 
ATOM      4  C   UNL     1      -7.941  -7.202   0.963  0.00  0.00    +0.000 C 
BRANCH   4   5
ATOM      5  C   UNL     1      -7.652  -7.513  -0.451  0.00  0.00    +0.000 A 
ATOM      6  C   UNL     1      -8.056  -6.605  -1.414  0.00  0.00    +0.000 A 
ATOM      7  C   UNL     1      -7.798  -6.835  -2.752  0.00  0.00    +0.000 A 
ATOM      8  C   UNL     1      -7.137  -7.968  -3.148  0.00  0.00    +0.000 A 
ATOM      9  C   UNL     1      -6.731  -8.873  -2.193  0.00  0.00    +0.000 A 
ATOM     10  C   UNL     1      -6.991  -8.643  -0.848  0.00  0.00    +0.000 A 
BRANCH   8  11
ATOM     11  O   UNL     1      -6.906  -8.144  -4.471  0.00  0.00    +0.000 OA
ATOM     12  C   UNL     1      -7.063  -7.053  -5.369  0.00  0.00    +0.000 C 
ENDBRANCH   8  11
ENDBRANCH   4   5
ENDBRANCH   1   3
BRANCH   1  13
ATOM     13  O   UNL     1      -6.680  -5.782   3.884  0.00  0.00    +0.000 OA
BRANCH  13  14
ATOM     14  C   UNL     1      -5.935  -4.895   3.068  0.00  0.00    +0.000 C 
BRANCH  14  15
ATOM     15  C   UNL     1      -6.751  -3.620   2.867  0.00  0.00    +0.000 C 
ATOM     16  C   UNL     1      -7.183  -3.375   1.431  0.00  0.00    +0.000 C 
ENDBRANCH  14  15
BRANCH  14  17
ATOM     17  C   UNL     1      -4.625  -4.565   3.740  0.00  0.00    +0.000 C 
BRANCH  17  18
ATOM     18  C   UNL     1      -3.836  -5.766   4.158  0.00  0.00    +0.000 C 
BRANCH  18  20
ATOM     19  C   UNL     1      -2.834  -7.903   3.350  0.00  0.00    +0.000 C 
ATOM     20  C   UNL     1      -3.218  -6.473   2.989  0.00  0.00    +0.000 C 
ENDBRANCH  18  20
ENDBRANCH  17  18
ENDBRANCH  14  17
ENDBRANCH  13  14
ENDBRANCH   1  13
TORSDOF 9
ENDMDL
MODEL 2
REMARK VINA RESULT:      -4.7      1.557      1.947
REMARK  Name = s2_esm2_control_ligand
REMARK  12 active torsions:
REMARK  status: ('A' for Active; 'I' for Inactive)
REMARK    1  A    between atoms: C_1  and  C_2
REMARK    2  A    between atoms: C_2  and  C_3
REMARK    3  A    between atoms: C_3  and  C_4
REMARK    4  A    between atoms: C_4  and  C_5
REMARK    5  A    between atoms: C_5  and  C_6
REMARK    6  A    between atoms: C_5  and  O_8
REMARK    7  A    between atoms: C_6  and  C_7
REMARK    8  A    between atoms: O_8  and  C_9
REMARK    9  A    between atoms: C_9  and  C_11
REMARK   10  A    between atoms: C_12  and  C_13
REMARK   11  A    between atoms: C_16  and  O_17
REMARK   12  A    between atoms: O_17  and  C_18
REMARK                            x       y       z     vdW  Elec       q    Type
REMARK                         _______ _______ _______ _____ _____    ______ ____
ROOT
ATOM      1  C   UNL     1      -7.021  -7.120   3.513  0.00  0.00    +0.000 C 
ATOM      2  O   UNL     1      -7.887  -7.606   4.191  0.00  0.00    +0.000 OA
ENDROOT
BRANCH   1   3
ATOM      3  C   UNL     1      -6.756  -7.523   2.109  0.00  0.00    +0.000 C 
ATOM      4  C   UNL     1      -6.282  -8.779   1.872  0.00  0.00    +0.000 C 
BRANCH   4   5
ATOM      5  C   UNL     1      -6.021  -9.309   0.520  0.00  0.00    +0.000 A 
ATOM      6  C   UNL     1      -6.807  -8.852  -0.523  0.00  0.00    +0.000 A 
ATOM      7  C   UNL     1      -6.598  -9.301  -1.814  0.00  0.00    +0.000 A 
ATOM      8  C   UNL     1      -5.607 -10.209  -2.082  0.00  0.00    +0.000 A 
ATOM      9  C   UNL     1      -4.821 -10.665  -1.048  0.00  0.00    +0.000 A 
ATOM     10  C   UNL     1      -5.032 -10.215   0.250  0.00  0.00    +0.000 A 
BRANCH   8  11
ATOM     11  O   UNL     1      -5.441 -10.614  -3.363  0.00  0.00    +0.000 OA
ATOM     12  C   UNL     1      -5.316  -9.650  -4.401  0.00  0.00    +0.000 C 
ENDBRANCH   8  11
ENDBRANCH   4   5
ENDBRANCH   1   3
BRANCH   1  13
ATOM     13  O   UNL     1      -6.233  -6.137   3.995  0.00  0.00    +0.000 OA
BRANCH  13  14
ATOM     14  C   UNL     1      -5.666  -5.197   3.099  0.00  0.00    +0.000 C 
BRANCH  14  15
ATOM     15  C   UNL     1      -6.531  -3.938   3.105  0.00  0.00    +0.000 C 
ATOM     16  C   UNL     1      -7.252  -3.670   1.796  0.00  0.00    +0.000 C 
ENDBRANCH  14  15
BRANCH  14  17
ATOM     17  C   UNL     1      -4.264  -4.857   3.540  0.00  0.00    +0.000 C 
BRANCH  17  18
ATOM     18  C   UNL     1      -3.516  -6.010   4.134  0.00  0.00    +0.000 C 
BRANCH  18  20
ATOM     19  C   UNL     1      -2.949  -8.347   3.473  0.00  0.00    +0.000 C 
ATOM     20  C   UNL     1      -2.884  -6.875   3.085  0.00  0.00    +0.000 C 
ENDBRANCH  18  20
ENDBRANCH  17  18
ENDBRANCH  14  17
ENDBRANCH  13  14
ENDBRANCH   1  13
TORSDOF 9
ENDMDL
MODEL 3
REMARK VINA RESULT:      -4.7      1.078      1.710
REMARK  Name = s2_esm2_control_ligand
REMARK  12 active torsions:
REMARK  status: ('A' for Active; 'I' for Inactive)
REMARK    1  A    between atoms: C_1  and  C_2
REMARK    2  A    between atoms: C_2  and  C_3
REMARK    3  A    between atoms: C_3  and  C_4
REMARK    4  A    between atoms: C_4  and  C_5
REMARK    5  A    between atoms: C_5  and  C_6
REMARK    6  A    between atoms: C_5  and  O_8
REMARK    7  A    between atoms: C_6  and  C_7
REMARK    8  A    between atoms: O_8  and  C_9
REMARK    9  A    between atoms: C_9  and  C_11
REMARK   10  A    between atoms: C_12  and  C_13
REMARK   11  A    between atoms: C_16  and  O_17
REMARK   12  A    between atoms: O_17  and  C_18
REMARK                            x       y       z     vdW  Elec       q    Type
REMARK                         _______ _______ _______ _____ _____    ______ ____
ROOT
ATOM      1  C   UNL     1      -8.271  -6.390   1.982  0.00  0.00    +0.000 C 
ATOM      2  O   UNL     1      -8.640  -7.384   2.548  0.00  0.00    +0.000 OA
ENDROOT
BRANCH   1   3
ATOM      3  C   UNL     1      -8.109  -6.298   0.509  0.00  0.00    +0.000 C 
ATOM      4  C   UNL     1      -7.663  -7.395  -0.166  0.00  0.00    +0.000 C 
BRANCH   4   5
ATOM      5  C   UNL     1      -7.502  -7.440  -1.632  0.00  0.00    +0.000 A 
ATOM      6  C   UNL     1      -6.854  -8.531  -2.184  0.00  0.00    +0.000 A 
ATOM      7  C   UNL     1      -6.689  -8.636  -3.552  0.00  0.00    +0.000 A 
ATOM      8  C   UNL     1      -7.165  -7.659  -4.387  0.00  0.00    +0.000 A 
ATOM      9  C   UNL     1      -7.814  -6.573  -3.843  0.00  0.00    +0.000 A 
ATOM     10  C   UNL     1      -7.978  -6.466  -2.467  0.00  0.00    +0.000 A 
BRANCH   8  11
ATOM     11  O   UNL     1      -6.981  -7.811  -5.720  0.00  0.00    +0.000 OA
ATOM     12  C   UNL     1      -5.672  -8.013  -6.235  0.00  0.00    +0.000 C 
ENDBRANCH   8  11
ENDBRANCH   4   5
ENDBRANCH   1   3
BRANCH   1  13
ATOM     13  O   UNL     1      -7.997  -5.262   2.669  0.00  0.00    +0.000 OA
BRANCH  13  14
ATOM     14  C   UNL     1      -6.718  -4.666   2.547  0.00  0.00    +0.000 C 
BRANCH  14  15
ATOM     15  C   UNL     1      -6.851  -3.169   2.817  0.00  0.00    +0.000 C 
ATOM     16  C   UNL     1      -7.941  -2.484   2.010  0.00  0.00    +0.000 C 
ENDBRANCH  14  15
BRANCH  14  17
ATOM     17  C   UNL     1      -5.772  -5.284   3.547  0.00  0.00    +0.000 C 
BRANCH  17  18
ATOM     18  C   UNL     1      -4.325  -5.109   3.205  0.00  0.00    +0.000 C 
BRANCH  18  20
ATOM     19  C   UNL     1      -2.788  -7.058   2.955  0.00  0.00    +0.000 C 
ATOM     20  C   UNL     1      -3.450  -6.090   3.928  0.00  0.00    +0.000 C 
ENDBRANCH  18  20
ENDBRANCH  17  18
ENDBRANCH  14  17
ENDBRANCH  13  14
ENDBRANCH   1  13
TORSDOF 9
ENDMDL
MODEL 4
REMARK VINA RESULT:      -4.6      2.267      3.233
REMARK  Name = s2_esm2_control_ligand
REMARK  12 active torsions:
REMARK  status: ('A' for Active; 'I' for Inactive)
REMARK    1  A    between atoms: C_1  and  C_2
REMARK    2  A    between atoms: C_2  and  C_3
REMARK    3  A    between atoms: C_3  and  C_4
REMARK    4  A    between atoms: C_4  and  C_5
REMARK    5  A    between atoms: C_5  and  C_6
REMARK    6  A    between atoms: C_5  and  O_8
REMARK    7  A    between atoms: C_6  and  C_7
REMARK    8  A    between atoms: O_8  and  C_9
REMARK    9  A    between atoms: C_9  and  C_11
REMARK   10  A    between atoms: C_12  and  C_13
REMARK   11  A    between atoms: C_16  and  O_17
REMARK   12  A    between atoms: O_17  and  C_18
REMARK                            x       y       z     vdW  Elec       q    Type
REMARK                         _______ _______ _______ _____ _____    ______ ____
ROOT
ATOM      1  C   UNL     1      -9.221  -3.865  -0.418  0.00  0.00    +0.000 C 
ATOM      2  O   UNL     1     -10.128  -3.177  -0.805  0.00  0.00    +0.000 OA
ENDROOT
BRANCH   1   3
ATOM      3  C   UNL     1      -8.421  -4.742  -1.309  0.00  0.00    +0.000 C 
ATOM      4  C   UNL     1      -8.492  -6.091  -1.129  0.00  0.00    +0.000 C 
BRANCH   4   5
ATOM      5  C   UNL     1      -7.778  -7.065  -1.978  0.00  0.00    +0.000 A 
ATOM      6  C   UNL     1      -7.691  -6.808  -3.335  0.00  0.00    +0.000 A 
ATOM      7  C   UNL     1      -7.021  -7.676  -4.176  0.00  0.00    +0.000 A 
ATOM      8  C   UNL     1      -6.430  -8.808  -3.679  0.00  0.00    +0.000 A 
ATOM      9  C   UNL     1      -6.512  -9.067  -2.329  0.00  0.00    +0.000 A 
ATOM     10  C   UNL     1      -7.187  -8.196  -1.483  0.00  0.00    +0.000 A 
BRANCH   8  11
ATOM     11  O   UNL     1      -5.783  -9.624  -4.544  0.00  0.00    +0.000 OA
ATOM     12  C   UNL     1      -4.657 -10.372  -4.106  0.00  0.00    +0.000 C 
ENDBRANCH   8  11
ENDBRANCH   4   5
ENDBRANCH   1   3
BRANCH   1  13
ATOM     13  O   UNL     1      -8.854  -3.865   0.880  0.00  0.00    +0.000 OA
BRANCH  13  14
ATOM     14  C   UNL     1      -7.658  -3.211   1.265  0.00  0.00    +0.000 C 
BRANCH  14  15
ATOM     15  C   UNL     1      -8.015  -2.046   2.186  0.00  0.00    +0.000 C 
ATOM     16  C   UNL     1      -8.433  -0.781   1.457  0.00  0.00    +0.000 C 
ENDBRANCH  14  15
BRANCH  14  17
ATOM     17  C   UNL     1      -6.761  -4.182   1.993  0.00  0.00    +0.000 C 
BRANCH  17  18
ATOM     18  C   UNL     1      -6.842  -4.085   3.485  0.00  0.00    +0.000 C 
BRANCH  18  20
ATOM     19  C   UNL     1      -4.506  -4.948   3.333  0.00  0.00    +0.000 C 
ATOM     20  C   UNL     1      -5.486  -4.092   4.127  0.00  0.00    +0.000 C 
ENDBRANCH  18  20
ENDBRANCH  17  18
ENDBRANCH  14  17
ENDBRANCH  13  14
ENDBRANCH   1  13
TORSDOF 9
ENDMDL
MODEL 5
REMARK VINA RESULT:      -4.3      1.394      3.245
REMARK  Name = s2_esm2_control_ligand
REMARK  12 active torsions:
REMARK  status: ('A' for Active; 'I' for Inactive)
REMARK    1  A    between atoms: C_1  and  C_2
REMARK    2  A    between atoms: C_2  and  C_3
REMARK    3  A    between atoms: C_3  and  C_4
REMARK    4  A    between atoms: C_4  and  C_5
REMARK    5  A    between atoms: C_5  and  C_6
REMARK    6  A    between atoms: C_5  and  O_8
REMARK    7  A    between atoms: C_6  and  C_7
REMARK    8  A    between atoms: O_8  and  C_9
REMARK    9  A    between atoms: C_9  and  C_11
REMARK   10  A    between atoms: C_12  and  C_13
REMARK   11  A    between atoms: C_16  and  O_17
REMARK   12  A    between atoms: O_17  and  C_18
REMARK                            x       y       z     vdW  Elec       q    Type
REMARK                         _______ _______ _______ _____ _____    ______ ____
ROOT
ATOM      1  C   UNL     1      -8.031  -6.367   2.195  0.00  0.00    +0.000 C 
ATOM      2  O   UNL     1      -9.153  -6.323   2.624  0.00  0.00    +0.000 OA
ENDROOT
BRANCH   1   3
ATOM      3  C   UNL     1      -7.679  -6.957   0.879  0.00  0.00    +0.000 C 
ATOM      4  C   UNL     1      -8.158  -6.361  -0.249  0.00  0.00    +0.000 C 
BRANCH   4   5
ATOM      5  C   UNL     1      -7.843  -6.828  -1.614  0.00  0.00    +0.000 A 
ATOM      6  C   UNL     1      -8.212  -6.026  -2.679  0.00  0.00    +0.000 A 
ATOM      7  C   UNL     1      -7.930  -6.404  -3.978  0.00  0.00    +0.000 A 
ATOM      8  C   UNL     1      -7.277  -7.582  -4.233  0.00  0.00    +0.000 A 
ATOM      9  C   UNL     1      -6.905  -8.382  -3.176  0.00  0.00    +0.000 A 
ATOM     10  C   UNL     1      -7.191  -8.004  -1.870  0.00  0.00    +0.000 A 
BRANCH   8  11
ATOM     11  O   UNL     1      -7.020  -7.904  -5.523  0.00  0.00    +0.000 OA
ATOM     12  C   UNL     1      -5.778  -8.500  -5.871  0.00  0.00    +0.000 C 
ENDBRANCH   8  11
ENDBRANCH   4   5
ENDBRANCH   1   3
BRANCH   1  13
ATOM     13  O   UNL     1      -7.000  -5.848   2.894  0.00  0.00    +0.000 OA
BRANCH  13  14
ATOM     14  C   UNL     1      -7.035  -4.485   3.278  0.00  0.00    +0.000 C 
BRANCH  14  15
ATOM     15  C   UNL     1      -5.882  -4.223   4.244  0.00  0.00    +0.000 C 
ATOM     16  C   UNL     1      -4.537  -4.744   3.768  0.00  0.00    +0.000 C 
ENDBRANCH  14  15
BRANCH  14  17
ATOM     17  C   UNL     1      -6.890  -3.610   2.058  0.00  0.00    +0.000 C 
BRANCH  17  18
ATOM     18  C   UNL     1      -7.792  -2.414   2.056  0.00  0.00    +0.000 C 
BRANCH  18  20
ATOM     19  C   UNL     1      -9.803  -3.251   0.840  0.00  0.00    +0.000 C 
ATOM     20  C   UNL     1      -9.237  -2.795   2.180  0.00  0.00    +0.000 C 
ENDBRANCH  18  20
ENDBRANCH  17  18
ENDBRANCH  14  17
ENDBRANCH  13  14
ENDBRANCH   1  13
TORSDOF 9
ENDMDL
MODEL 6
REMARK VINA RESULT:      -4.2      1.790      2.425
REMARK  Name = s2_esm2_control_ligand
REMARK  12 active torsions:
REMARK  status: ('A' for Active; 'I' for Inactive)
REMARK    1  A    between atoms: C_1  and  C_2
REMARK    2  A    between atoms: C_2  and  C_3
REMARK    3  A    between atoms: C_3  and  C_4
REMARK    4  A    between atoms: C_4  and  C_5
REMARK    5  A    between atoms: C_5  and  C_6
REMARK    6  A    between atoms: C_5  and  O_8
REMARK    7  A    between atoms: C_6  and  C_7
REMARK    8  A    between atoms: O_8  and  C_9
REMARK    9  A    between atoms: C_9  and  C_11
REMARK   10  A    between atoms: C_12  and  C_13
REMARK   11  A    between atoms: C_16  and  O_17
REMARK   12  A    between atoms: O_17  and  C_18
REMARK                            x       y       z     vdW  Elec       q    Type
REMARK                         _______ _______ _______ _____ _____    ______ ____
ROOT
ATOM      1  C   UNL     1      -8.815  -5.270   0.982  0.00  0.00    +0.000 C 
ATOM      2  O   UNL     1      -9.662  -4.533   0.552  0.00  0.00    +0.000 OA
ENDROOT
BRANCH   1   3
ATOM      3  C   UNL     1      -8.221  -6.381   0.198  0.00  0.00    +0.000 C 
ATOM      4  C   UNL     1      -8.187  -6.273  -1.160  0.00  0.00    +0.000 C 
BRANCH   4   5
ATOM      5  C   UNL     1      -7.585  -7.291  -2.044  0.00  0.00    +0.000 A 
ATOM      6  C   UNL     1      -7.562  -7.041  -3.405  0.00  0.00    +0.000 A 
ATOM      7  C   UNL     1      -6.997  -7.951  -4.280  0.00  0.00    +0.000 A 
ATOM      8  C   UNL     1      -6.448  -9.116  -3.812  0.00  0.00    +0.000 A 
ATOM      9  C   UNL     1      -6.465  -9.367  -2.458  0.00  0.00    +0.000 A 
ATOM     10  C   UNL     1      -7.035  -8.454  -1.579  0.00  0.00    +0.000 A 
BRANCH   8  11
ATOM     11  O   UNL     1      -5.904  -9.971  -4.710  0.00  0.00    +0.000 OA
ATOM     12  C   UNL     1      -5.837 -11.360  -4.415  0.00  0.00    +0.000 C 
ENDBRANCH   8  11
ENDBRANCH   4   5
ENDBRANCH   1   3
BRANCH   1  13
ATOM     13  O   UNL     1      -8.325  -5.111   2.229  0.00  0.00    +0.000 OA
BRANCH  13  14
ATOM     14  C   UNL     1      -6.923  -5.088   2.429  0.00  0.00    +0.000 C 
BRANCH  14  15
ATOM     15  C   UNL     1      -6.540  -3.738   3.031  0.00  0.00    +0.000 C 
ATOM     16  C   UNL     1      -5.636  -3.831   4.248  0.00  0.00    +0.000 C 
ENDBRANCH  14  15
BRANCH  14  17
ATOM     17  C   UNL     1      -6.526  -6.199   3.369  0.00  0.00    +0.000 C 
BRANCH  17  18
ATOM     18  C   UNL     1      -5.665  -7.250   2.739  0.00  0.00    +0.000 C 
BRANCH  18  20
ATOM     19  C   UNL     1      -3.342  -6.430   3.134  0.00  0.00    +0.000 C 
ATOM     20  C   UNL     1      -4.393  -7.471   3.503  0.00  0.00    +0.000 C 
ENDBRANCH  18  20
ENDBRANCH  17  18
ENDBRANCH  14  17
ENDBRANCH  13  14
ENDBRANCH   1  13
TORSDOF 9
ENDMDL
MODEL 7
REMARK VINA RESULT:      -4.2      1.919      3.554
REMARK  Name = s2_esm2_control_ligand
REMARK  12 active torsions:
REMARK  status: ('A' for Active; 'I' for Inactive)
REMARK    1  A    between atoms: C_1  and  C_2
REMARK    2  A    between atoms: C_2  and  C_3
REMARK    3  A    between atoms: C_3  and  C_4
REMARK    4  A    between atoms: C_4  and  C_5
REMARK    5  A    between atoms: C_5  and  C_6
REMARK    6  A    between atoms: C_5  and  O_8
REMARK    7  A    between atoms: C_6  and  C_7
REMARK    8  A    between atoms: O_8  and  C_9
REMARK    9  A    between atoms: C_9  and  C_11
REMARK   10  A    between atoms: C_12  and  C_13
REMARK   11  A    between atoms: C_16  and  O_17
REMARK   12  A    between atoms: O_17  and  C_18
REMARK                            x       y       z     vdW  Elec       q    Type
REMARK                         _______ _______ _______ _____ _____    ______ ____
ROOT
ATOM      1  C   UNL     1      -7.541  -2.700   2.107  0.00  0.00    +0.000 C 
ATOM      2  O   UNL     1      -7.793  -1.541   2.302  0.00  0.00    +0.000 OA
ENDROOT
BRANCH   1   3
ATOM      3  C   UNL     1      -7.358  -3.280   0.753  0.00  0.00    +0.000 C 
ATOM      4  C   UNL     1      -8.448  -3.781   0.107  0.00  0.00    +0.000 C 
BRANCH   4   5
ATOM      5  C   UNL     1      -8.400  -4.344  -1.257  0.00  0.00    +0.000 A 
ATOM      6  C   UNL     1      -8.342  -5.720  -1.393  0.00  0.00    +0.000 A 
ATOM      7  C   UNL     1      -8.312  -6.304  -2.645  0.00  0.00    +0.000 A 
ATOM      8  C   UNL     1      -8.338  -5.529  -3.775  0.00  0.00    +0.000 A 
ATOM      9  C   UNL     1      -8.399  -4.160  -3.645  0.00  0.00    +0.000 A 
ATOM     10  C   UNL     1      -8.427  -3.572  -2.386  0.00  0.00    +0.000 A 
BRANCH   8  11
ATOM     11  O   UNL     1      -8.310  -6.151  -4.977  0.00  0.00    +0.000 OA
ATOM     12  C   UNL     1      -7.320  -7.135  -5.243  0.00  0.00    +0.000 C 
ENDBRANCH   8  11
ENDBRANCH   4   5
ENDBRANCH   1   3
BRANCH   1  13
ATOM     13  O   UNL     1      -7.385  -3.559   3.135  0.00  0.00    +0.000 OA
BRANCH  13  14
ATOM     14  C   UNL     1      -6.512  -4.665   2.991  0.00  0.00    +0.000 C 
BRANCH  14  15
ATOM     15  C   UNL     1      -5.267  -4.416   3.839  0.00  0.00    +0.000 C 
ATOM     16  C   UNL     1      -4.085  -5.304   3.490  0.00  0.00    +0.000 C 
ENDBRANCH  14  15
BRANCH  14  17
ATOM     17  C   UNL     1      -7.205  -5.923   3.456  0.00  0.00    +0.000 C 
BRANCH  17  18
ATOM     18  C   UNL     1      -7.917  -6.663   2.367  0.00  0.00    +0.000 C 
BRANCH  18  20
ATOM     19  C   UNL     1      -6.032  -8.297   2.415  0.00  0.00    +0.000 C 
ATOM     20  C   UNL     1      -6.979  -7.488   1.536  0.00  0.00    +0.000 C 
ENDBRANCH  18  20
ENDBRANCH  17  18
ENDBRANCH  14  17
ENDBRANCH  13  14
ENDBRANCH   1  13
TORSDOF 9
ENDMDL
MODEL 8
REMARK VINA RESULT:      -4.1      2.714      4.650
REMARK  Name = s2_esm2_control_ligand
REMARK  12 active torsions:
REMARK  status: ('A' for Active; 'I' for Inactive)
REMARK    1  A    between atoms: C_1  and  C_2
REMARK    2  A    between atoms: C_2  and  C_3
REMARK    3  A    between atoms: C_3  and  C_4
REMARK    4  A    between atoms: C_4  and  C_5
REMARK    5  A    between atoms: C_5  and  C_6
REMARK    6  A    between atoms: C_5  and  O_8
REMARK    7  A    between atoms: C_6  and  C_7
REMARK    8  A    between atoms: O_8  and  C_9
REMARK    9  A    between atoms: C_9  and  C_11
REMARK   10  A    between atoms: C_12  and  C_13
REMARK   11  A    between atoms: C_16  and  O_17
REMARK   12  A    between atoms: O_17  and  C_18
REMARK                            x       y       z     vdW  Elec       q    Type
REMARK                         _______ _______ _______ _____ _____    ______ ____
ROOT
ATOM      1  C   UNL     1      -9.208  -4.257  -0.413  0.00  0.00    +0.000 C 
ATOM      2  O   UNL     1     -10.391  -4.176  -0.219  0.00  0.00    +0.000 OA
ENDROOT
BRANCH   1   3
ATOM      3  C   UNL     1      -8.596  -5.236  -1.346  0.00  0.00    +0.000 C 
ATOM      4  C   UNL     1      -8.093  -6.395  -0.836  0.00  0.00    +0.000 C 
BRANCH   4   5
ATOM      5  C   UNL     1      -7.501  -7.462  -1.667  0.00  0.00    +0.000 A 
ATOM      6  C   UNL     1      -7.467  -7.278  -3.038  0.00  0.00    +0.000 A 
ATOM      7  C   UNL     1      -6.910  -8.235  -3.865  0.00  0.00    +0.000 A 
ATOM      8  C   UNL     1      -6.380  -9.385  -3.339  0.00  0.00    +0.000 A 
ATOM      9  C   UNL     1      -6.409  -9.571  -1.975  0.00  0.00    +0.000 A 
ATOM     10  C   UNL     1      -6.971  -8.610  -1.144  0.00  0.00    +0.000 A 
BRANCH   8  11
ATOM     11  O   UNL     1      -5.843 -10.289  -4.192  0.00  0.00    +0.000 OA
ATOM     12  C   UNL     1      -4.481 -10.671  -4.054  0.00  0.00    +0.000 C 
ENDBRANCH   8  11
ENDBRANCH   4   5
ENDBRANCH   1   3
BRANCH   1  13
ATOM     13  O   UNL     1      -8.344  -3.427   0.207  0.00  0.00    +0.000 OA
BRANCH  13  14
ATOM     14  C   UNL     1      -8.298  -3.399   1.623  0.00  0.00    +0.000 C 
BRANCH  14  15
ATOM     15  C   UNL     1      -7.183  -4.332   2.091  0.00  0.00    +0.000 C 
ATOM     16  C   UNL     1      -6.369  -3.796   3.255  0.00  0.00    +0.000 C 
ENDBRANCH  14  15
BRANCH  14  17
ATOM     17  C   UNL     1      -8.022  -1.993   2.095  0.00  0.00    +0.000 C 
BRANCH  17  18
ATOM     18  C   UNL     1      -9.042  -0.991   1.654  0.00  0.00    +0.000 C 
BRANCH  18  20
ATOM     19  C   UNL     1      -8.845   1.480   1.373  0.00  0.00    +0.000 C 
ATOM     20  C   UNL     1      -8.436   0.113   0.839  0.00  0.00    +0.000 C 
ENDBRANCH  18  20
ENDBRANCH  17  18
ENDBRANCH  14  17
ENDBRANCH  13  14
ENDBRANCH   1  13
TORSDOF 9
ENDMDL
MODEL 9
REMARK VINA RESULT:      -4.1      3.627      7.013
REMARK  Name = s2_esm2_control_ligand
REMARK  12 active torsions:
REMARK  status: ('A' for Active; 'I' for Inactive)
REMARK    1  A    between atoms: C_1  and  C_2
REMARK    2  A    between atoms: C_2  and  C_3
REMARK    3  A    between atoms: C_3  and  C_4
REMARK    4  A    between atoms: C_4  and  C_5
REMARK    5  A    between atoms: C_5  and  C_6
REMARK    6  A    between atoms: C_5  and  O_8
REMARK    7  A    between atoms: C_6  and  C_7
REMARK    8  A    between atoms: O_8  and  C_9
REMARK    9  A    between atoms: C_9  and  C_11
REMARK   10  A    between atoms: C_12  and  C_13
REMARK   11  A    between atoms: C_16  and  O_17
REMARK   12  A    between atoms: O_17  and  C_18
REMARK                            x       y       z     vdW  Elec       q    Type
REMARK                         _______ _______ _______ _____ _____    ______ ____
ROOT
ATOM      1  C   UNL     1      -7.698  -2.677   1.788  0.00  0.00    +0.000 C 
ATOM      2  O   UNL     1      -7.607  -1.694   2.474  0.00  0.00    +0.000 OA
ENDROOT
BRANCH   1   3
ATOM      3  C   UNL     1      -6.724  -3.796   1.829  0.00  0.00    +0.000 C 
ATOM      4  C   UNL     1      -6.268  -4.217   3.043  0.00  0.00    +0.000 C 
BRANCH   4   5
ATOM      5  C   UNL     1      -5.332  -5.346   3.215  0.00  0.00    +0.000 A 
ATOM      6  C   UNL     1      -4.095  -5.088   3.779  0.00  0.00    +0.000 A 
ATOM      7  C   UNL     1      -3.184  -6.108   3.979  0.00  0.00    +0.000 A 
ATOM      8  C   UNL     1      -3.493  -7.395   3.623  0.00  0.00    +0.000 A 
ATOM      9  C   UNL     1      -4.723  -7.657   3.065  0.00  0.00    +0.000 A 
ATOM     10  C   UNL     1      -5.638  -6.632   2.860  0.00  0.00    +0.000 A 
BRANCH   8  11
ATOM     11  O   UNL     1      -2.567  -8.358   3.844  0.00  0.00    +0.000 OA
ATOM     12  C   UNL     1      -2.973  -9.715   3.971  0.00  0.00    +0.000 C 
ENDBRANCH   8  11
ENDBRANCH   4   5
ENDBRANCH   1   3
BRANCH   1  13
ATOM     13  O   UNL     1      -8.730  -2.835   0.935  0.00  0.00    +0.000 OA
BRANCH  13  14
ATOM     14  C   UNL     1      -9.030  -1.808   0.006  0.00  0.00    +0.000 C 
BRANCH  14  15
ATOM     15  C   UNL     1      -9.134  -2.427  -1.386  0.00  0.00    +0.000 C 
ATOM     16  C   UNL     1      -8.425  -3.762  -1.530  0.00  0.00    +0.000 C 
ENDBRANCH  14  15
BRANCH  14  17
ATOM     17  C   UNL     1     -10.339  -1.156   0.375  0.00  0.00    +0.000 C 
BRANCH  17  18
ATOM     18  C   UNL     1     -10.190   0.189   1.016  0.00  0.00    +0.000 C 
BRANCH  18  20
ATOM     19  C   UNL     1      -8.588   2.045   1.480  0.00  0.00    +0.000 C 
ATOM     20  C   UNL     1      -8.970   0.915   0.531  0.00  0.00    +0.000 C 
ENDBRANCH  18  20
ENDBRANCH  17  18
ENDBRANCH  14  17
ENDBRANCH  13  14
ENDBRANCH   1  13
TORSDOF 9
ENDMDL
