REMARK  Name = s3_orig_f12_ligand
REMARK  12 active torsions:
REMARK  status: ('A' for Active; 'I' for Inactive)
REMARK    1  A    between atoms: C_1  and  C_2
REMARK    2  A    between atoms: C_2  and  C_3
REMARK    3  A    between atoms: C_3  and  C_4
REMARK    4  A    between atoms: C_4  and  C_5
REMARK    5  A    between atoms: C_5  and  C_6
REMARK    6  A    between atoms: C_5  and  O_8
REMARK    7  A    between atoms: C_6  and  C_7
REMARK    8  A    between atoms: O_8  and  C_9
REMARK    9  A    between atoms: C_9  and  C_11
REMARK   10  A    between atoms: C_12  and  C_13
REMARK   11  A    between atoms: C_16  and  O_17
REMARK   12  A    between atoms: O_17  and  C_18
REMARK                            x       y       z     vdW  Elec       q    Type
REMARK                         _______ _______ _______ _____ _____    ______ ____
ROOT
ATOM      1  C   UNL     1       7.300   3.150   0.362  0.00  0.00    +0.000 C 
ATOM      2  O   UNL     1       7.482   2.268   1.161  0.00  0.00    +0.000 OA
ENDROOT
BRANCH   1   3
ATOM      3  C   UNL     1       7.720   3.087  -1.058  0.00  0.00    +0.000 C 
ATOM      4  C   UNL     1       8.341   2.023  -1.563  0.00  0.00    +0.000 C 
BRANCH   4   5
ATOM      5  C   UNL     1       8.871   1.942  -2.947  0.00  0.00    +0.000 A 
ATOM      6  C   UNL     1       9.764   0.934  -3.272  0.00  0.00    +0.000 A 
ATOM      7  C   UNL     1      10.339   0.881  -4.537  0.00  0.00    +0.000 A 
ATOM      8  C   UNL     1       9.986   1.792  -5.511  0.00  0.00    +0.000 A 
ATOM      9  C   UNL     1       9.063   2.756  -5.201  0.00  0.00    +0.000 A 
ATOM     10  C   UNL     1       8.508   2.833  -3.924  0.00  0.00    +0.000 A 
BRANCH   8  11
ATOM     11  O   UNL     1      10.518   1.768  -6.784  0.00  0.00    +0.000 OA
ATOM     12  C   UNL     1      11.837   1.276  -6.936  0.00  0.00    +0.000 C 
ENDBRANCH   8  11
ENDBRANCH   4   5
ENDBRANCH   1   3
BRANCH   1  13
ATOM     13  O   UNL     1       6.758   4.193   0.750  0.00  0.00    +0.000 OA
BRANCH  13  14
ATOM     14  C   UNL     1       6.195   5.133   1.485  0.00  0.00    +0.000 C 
BRANCH  14  15
ATOM     15  C   UNL     1       5.071   4.544   2.317  0.00  0.00    +0.000 C 
ATOM     16  C   UNL     1       4.414   5.539   3.268  0.00  0.00    +0.000 C 
ENDBRANCH  14  15
BRANCH  14  17
ATOM     17  C   UNL     1       7.205   5.823   2.388  0.00  0.00    +0.000 C 
BRANCH  17  18
ATOM     18  C   UNL     1       8.525   6.109   1.750  0.00  0.00    +0.000 C 
BRANCH  18  20
ATOM     19  C   UNL     1      10.549   7.575   1.690  0.00  0.00    +0.000 C 
ATOM     20  C   UNL     1       9.200   7.326   2.331  0.00  0.00    +0.000 C 
ENDBRANCH  18  20
ENDBRANCH  17  18
ENDBRANCH  14  17
ENDBRANCH  13  14
ENDBRANCH   1  13
TORSDOF 9
