MODEL 1
REMARK VINA RESULT:      -4.3      0.000      0.000
REMARK  Name = s3_orig_f12_ligand
REMARK  12 active torsions:
REMARK  status: ('A' for Active; 'I' for Inactive)
REMARK    1  A    between atoms: C_1  and  C_2
REMARK    2  A    between atoms: C_2  and  C_3
REMARK    3  A    between atoms: C_3  and  C_4
REMARK    4  A    between atoms: C_4  and  C_5
REMARK    5  A    between atoms: C_5  and  C_6
REMARK    6  A    between atoms: C_5  and  O_8
REMARK    7  A    between atoms: C_6  and  C_7
REMARK    8  A    between atoms: O_8  and  C_9
REMARK    9  A    between atoms: C_9  and  C_11
REMARK   10  A    between atoms: C_12  and  C_13
REMARK   11  A    between atoms: C_16  and  O_17
REMARK   12  A    between atoms: O_17  and  C_18
REMARK                            x       y       z     vdW  Elec       q    Type
REMARK                         _______ _______ _______ _____ _____    ______ ____
ROOT
ATOM      1  C   UNL     1       2.375   5.977   4.951  0.00  0.00    +0.000 C 
ATOM      2  O   UNL     1       2.502   7.118   5.313  0.00  0.00    +0.000 OA
ENDROOT
BRANCH   1   3
ATOM      3  C   UNL     1       3.026   5.408   3.746  0.00  0.00    +0.000 C 
ATOM      4  C   UNL     1       4.241   4.866   3.791  0.00  0.00    +0.000 C 
BRANCH   4   5
ATOM      5  C   UNL     1       4.981   4.371   2.603  0.00  0.00    +0.000 A 
ATOM      6  C   UNL     1       4.906   5.080   1.415  0.00  0.00    +0.000 A 
ATOM      7  C   UNL     1       5.521   4.598   0.265  0.00  0.00    +0.000 A 
ATOM      8  C   UNL     1       6.269   3.440   0.298  0.00  0.00    +0.000 A 
ATOM      9  C   UNL     1       6.384   2.769   1.488  0.00  0.00    +0.000 A 
ATOM     10  C   UNL     1       5.741   3.231   2.636  0.00  0.00    +0.000 A 
BRANCH   8  11
ATOM     11  O   UNL     1       6.911   2.933  -0.813  0.00  0.00    +0.000 OA
ATOM     12  C   UNL     1       8.297   2.664  -0.707  0.00  0.00    +0.000 C 
ENDBRANCH   8  11
ENDBRANCH   4   5
ENDBRANCH   1   3
BRANCH   1  13
ATOM     13  O   UNL     1       1.630   5.233   5.601  0.00  0.00    +0.000 OA
BRANCH  13  14
ATOM     14  C   UNL     1       0.733   4.335   5.960  0.00  0.00    +0.000 C 
BRANCH  14  15
ATOM     15  C   UNL     1       0.572   4.329   7.468  0.00  0.00    +0.000 C 
ATOM     16  C   UNL     1       1.882   4.172   8.233  0.00  0.00    +0.000 C 
ENDBRANCH  14  15
BRANCH  14  17
ATOM     17  C   UNL     1      -0.611   4.583   5.294  0.00  0.00    +0.000 C 
BRANCH  17  18
ATOM     18  C   UNL     1      -1.460   5.618   5.958  0.00  0.00    +0.000 C 
BRANCH  18  20
ATOM     19  C   UNL     1      -1.125   6.759   3.760  0.00  0.00    +0.000 C 
ATOM     20  C   UNL     1      -1.446   6.937   5.229  0.00  0.00    +0.000 C 
ENDBRANCH  18  20
ENDBRANCH  17  18
ENDBRANCH  14  17
ENDBRANCH  13  14
ENDBRANCH   1  13
TORSDOF 9
ENDMDL
MODEL 2
REMARK VINA RESULT:      -4.3      2.279      7.832
REMARK  Name = s3_orig_f12_ligand
REMARK  12 active torsions:
REMARK  status: ('A' for Active; 'I' for Inactive)
REMARK    1  A    between atoms: C_1  and  C_2
REMARK    2  A    between atoms: C_2  and  C_3
REMARK    3  A    between atoms: C_3  and  C_4
REMARK    4  A    between atoms: C_4  and  C_5
REMARK    5  A    between atoms: C_5  and  C_6
REMARK    6  A    between atoms: C_5  and  O_8
REMARK    7  A    between atoms: C_6  and  C_7
REMARK    8  A    between atoms: O_8  and  C_9
REMARK    9  A    between atoms: C_9  and  C_11
REMARK   10  A    between atoms: C_12  and  C_13
REMARK   11  A    between atoms: C_16  and  O_17
REMARK   12  A    between atoms: O_17  and  C_18
REMARK                            x       y       z     vdW  Elec       q    Type
REMARK                         _______ _______ _______ _____ _____    ______ ____
ROOT
ATOM      1  C   UNL     1       1.842   6.151   2.210  0.00  0.00    +0.000 C 
ATOM      2  O   UNL     1       1.452   6.230   1.074  0.00  0.00    +0.000 OA
ENDROOT
BRANCH   1   3
ATOM      3  C   UNL     1       0.952   6.040   3.390  0.00  0.00    +0.000 C 
ATOM      4  C   UNL     1       1.180   5.164   4.366  0.00  0.00    +0.000 C 
BRANCH   4   5
ATOM      5  C   UNL     1       0.273   4.940   5.520  0.00  0.00    +0.000 A 
ATOM      6  C   UNL     1       0.755   4.288   6.643  0.00  0.00    +0.000 A 
ATOM      7  C   UNL     1      -0.092   3.993   7.705  0.00  0.00    +0.000 A 
ATOM      8  C   UNL     1      -1.411   4.397   7.689  0.00  0.00    +0.000 A 
ATOM      9  C   UNL     1      -1.870   5.088   6.599  0.00  0.00    +0.000 A 
ATOM     10  C   UNL     1      -1.033   5.358   5.517  0.00  0.00    +0.000 A 
BRANCH   8  11
ATOM     11  O   UNL     1      -2.283   4.141   8.728  0.00  0.00    +0.000 OA
ATOM     12  C   UNL     1      -2.336   2.819   9.231  0.00  0.00    +0.000 C 
ENDBRANCH   8  11
ENDBRANCH   4   5
ENDBRANCH   1   3
BRANCH   1  13
ATOM     13  O   UNL     1       3.061   6.198   2.419  0.00  0.00    +0.000 OA
BRANCH  13  14
ATOM     14  C   UNL     1       4.348   5.915   2.492  0.00  0.00    +0.000 C 
BRANCH  14  15
ATOM     15  C   UNL     1       4.788   5.852   3.943  0.00  0.00    +0.000 C 
ATOM     16  C   UNL     1       4.376   7.065   4.771  0.00  0.00    +0.000 C 
ENDBRANCH  14  15
BRANCH  14  17
ATOM     17  C   UNL     1       4.678   4.607   1.791  0.00  0.00    +0.000 C 
BRANCH  17  18
ATOM     18  C   UNL     1       4.736   3.412   2.685  0.00  0.00    +0.000 C 
BRANCH  18  20
ATOM     19  C   UNL     1       7.223   3.156   2.719  0.00  0.00    +0.000 C 
ATOM     20  C   UNL     1       5.900   2.506   2.370  0.00  0.00    +0.000 C 
ENDBRANCH  18  20
ENDBRANCH  17  18
ENDBRANCH  14  17
ENDBRANCH  13  14
ENDBRANCH   1  13
TORSDOF 9
ENDMDL
MODEL 3
REMARK VINA RESULT:      -4.2      0.888      2.561
REMARK  Name = s3_orig_f12_ligand
REMARK  12 active torsions:
REMARK  status: ('A' for Active; 'I' for Inactive)
REMARK    1  A    between atoms: C_1  and  C_2
REMARK    2  A    between atoms: C_2  and  C_3
REMARK    3  A    between atoms: C_3  and  C_4
REMARK    4  A    between atoms: C_4  and  C_5
REMARK    5  A    between atoms: C_5  and  C_6
REMARK    6  A    between atoms: C_5  and  O_8
REMARK    7  A    between atoms: C_6  and  C_7
REMARK    8  A    between atoms: O_8  and  C_9
REMARK    9  A    between atoms: C_9  and  C_11
REMARK   10  A    between atoms: C_12  and  C_13
REMARK   11  A    between atoms: C_16  and  O_17
REMARK   12  A    between atoms: O_17  and  C_18
REMARK                            x       y       z     vdW  Elec       q    Type
REMARK                         _______ _______ _______ _____ _____    ______ ____
ROOT
ATOM      1  C   UNL     1       2.842   6.840   5.057  0.00  0.00    +0.000 C 
ATOM      2  O   UNL     1       3.391   7.355   5.997  0.00  0.00    +0.000 OA
ENDROOT
BRANCH   1   3
ATOM      3  C   UNL     1       3.549   6.326   3.860  0.00  0.00    +0.000 C 
ATOM      4  C   UNL     1       3.912   5.049   3.750  0.00  0.00    +0.000 C 
BRANCH   4   5
ATOM      5  C   UNL     1       4.706   4.500   2.623  0.00  0.00    +0.000 A 
ATOM      6  C   UNL     1       4.743   5.188   1.421  0.00  0.00    +0.000 A 
ATOM      7  C   UNL     1       5.412   4.658   0.324  0.00  0.00    +0.000 A 
ATOM      8  C   UNL     1       6.102   3.467   0.426  0.00  0.00    +0.000 A 
ATOM      9  C   UNL     1       6.106   2.815   1.631  0.00  0.00    +0.000 A 
ATOM     10  C   UNL     1       5.410   3.327   2.726  0.00  0.00    +0.000 A 
BRANCH   8  11
ATOM     11  O   UNL     1       6.792   2.911  -0.631  0.00  0.00    +0.000 OA
ATOM     12  C   UNL     1       8.186   2.717  -0.477  0.00  0.00    +0.000 C 
ENDBRANCH   8  11
ENDBRANCH   4   5
ENDBRANCH   1   3
BRANCH   1  13
ATOM     13  O   UNL     1       1.607   6.760   5.067  0.00  0.00    +0.000 OA
BRANCH  13  14
ATOM     14  C   UNL     1       0.364   6.320   5.038  0.00  0.00    +0.000 C 
BRANCH  14  15
ATOM     15  C   UNL     1      -0.462   7.149   4.072  0.00  0.00    +0.000 C 
ATOM     16  C   UNL     1      -0.000   7.056   2.621  0.00  0.00    +0.000 C 
ENDBRANCH  14  15
BRANCH  14  17
ATOM     17  C   UNL     1       0.295   4.851   4.656  0.00  0.00    +0.000 C 
BRANCH  17  18
ATOM     18  C   UNL     1       0.885   3.913   5.657  0.00  0.00    +0.000 C 
BRANCH  18  20
ATOM     19  C   UNL     1       1.759   4.389   7.950  0.00  0.00    +0.000 C 
ATOM     20  C   UNL     1       0.528   4.278   7.076  0.00  0.00    +0.000 C 
ENDBRANCH  18  20
ENDBRANCH  17  18
ENDBRANCH  14  17
ENDBRANCH  13  14
ENDBRANCH   1  13
TORSDOF 9
ENDMDL
MODEL 4
REMARK VINA RESULT:      -4.2      0.963      2.907
REMARK  Name = s3_orig_f12_ligand
REMARK  12 active torsions:
REMARK  status: ('A' for Active; 'I' for Inactive)
REMARK    1  A    between atoms: C_1  and  C_2
REMARK    2  A    between atoms: C_2  and  C_3
REMARK    3  A    between atoms: C_3  and  C_4
REMARK    4  A    between atoms: C_4  and  C_5
REMARK    5  A    between atoms: C_5  and  C_6
REMARK    6  A    between atoms: C_5  and  O_8
REMARK    7  A    between atoms: C_6  and  C_7
REMARK    8  A    between atoms: O_8  and  C_9
REMARK    9  A    between atoms: C_9  and  C_11
REMARK   10  A    between atoms: C_12  and  C_13
REMARK   11  A    between atoms: C_16  and  O_17
REMARK   12  A    between atoms: O_17  and  C_18
REMARK                            x       y       z     vdW  Elec       q    Type
REMARK                         _______ _______ _______ _____ _____    ______ ____
ROOT
ATOM      1  C   UNL     1       2.148   7.189   4.376  0.00  0.00    +0.000 C 
ATOM      2  O   UNL     1       2.696   7.785   5.268  0.00  0.00    +0.000 OA
ENDROOT
BRANCH   1   3
ATOM      3  C   UNL     1       2.861   6.504   3.272  0.00  0.00    +0.000 C 
ATOM      4  C   UNL     1       3.592   5.410   3.477  0.00  0.00    +0.000 C 
BRANCH   4   5
ATOM      5  C   UNL     1       4.405   4.739   2.432  0.00  0.00    +0.000 A 
ATOM      6  C   UNL     1       5.037   3.543   2.730  0.00  0.00    +0.000 A 
ATOM      7  C   UNL     1       5.870   2.933   1.798  0.00  0.00    +0.000 A 
ATOM      8  C   UNL     1       6.034   3.472   0.540  0.00  0.00    +0.000 A 
ATOM      9  C   UNL     1       5.366   4.628   0.231  0.00  0.00    +0.000 A 
ATOM     10  C   UNL     1       4.555   5.261   1.173  0.00  0.00    +0.000 A 
BRANCH   8  11
ATOM     11  O   UNL     1       6.837   2.893  -0.422  0.00  0.00    +0.000 OA
ATOM     12  C   UNL     1       7.958   3.632  -0.874  0.00  0.00    +0.000 C 
ENDBRANCH   8  11
ENDBRANCH   4   5
ENDBRANCH   1   3
BRANCH   1  13
ATOM     13  O   UNL     1       0.911   7.171   4.353  0.00  0.00    +0.000 OA
BRANCH  13  14
ATOM     14  C   UNL     1      -0.363   7.084   4.685  0.00  0.00    +0.000 C 
BRANCH  14  15
ATOM     15  C   UNL     1      -1.221   6.967   3.439  0.00  0.00    +0.000 C 
ATOM     16  C   UNL     1      -0.805   7.902   2.307  0.00  0.00    +0.000 C 
ENDBRANCH  14  15
BRANCH  14  17
ATOM     17  C   UNL     1      -0.625   5.906   5.610  0.00  0.00    +0.000 C 
BRANCH  17  18
ATOM     18  C   UNL     1      -0.379   4.564   5.003  0.00  0.00    +0.000 C 
BRANCH  18  20
ATOM     19  C   UNL     1       1.242   4.416   6.900  0.00  0.00    +0.000 C 
ATOM     20  C   UNL     1       0.883   3.916   5.517  0.00  0.00    +0.000 C 
ENDBRANCH  18  20
ENDBRANCH  17  18
ENDBRANCH  14  17
ENDBRANCH  13  14
ENDBRANCH   1  13
TORSDOF 9
ENDMDL
MODEL 5
REMARK VINA RESULT:      -4.2      2.079      3.405
REMARK  Name = s3_orig_f12_ligand
REMARK  12 active torsions:
REMARK  status: ('A' for Active; 'I' for Inactive)
REMARK    1  A    between atoms: C_1  and  C_2
REMARK    2  A    between atoms: C_2  and  C_3
REMARK    3  A    between atoms: C_3  and  C_4
REMARK    4  A    between atoms: C_4  and  C_5
REMARK    5  A    between atoms: C_5  and  C_6
REMARK    6  A    between atoms: C_5  and  O_8
REMARK    7  A    between atoms: C_6  and  C_7
REMARK    8  A    between atoms: O_8  and  C_9
REMARK    9  A    between atoms: C_9  and  C_11
REMARK   10  A    between atoms: C_12  and  C_13
REMARK   11  A    between atoms: C_16  and  O_17
REMARK   12  A    between atoms: O_17  and  C_18
REMARK                            x       y       z     vdW  Elec       q    Type
REMARK                         _______ _______ _______ _____ _____    ______ ____
ROOT
ATOM      1  C   UNL     1       2.040   6.288   1.846  0.00  0.00    +0.000 C 
ATOM      2  O   UNL     1       1.414   6.670   0.891  0.00  0.00    +0.000 OA
ENDROOT
BRANCH   1   3
ATOM      3  C   UNL     1       3.285   5.488   1.759  0.00  0.00    +0.000 C 
ATOM      4  C   UNL     1       3.907   5.033   2.845  0.00  0.00    +0.000 C 
BRANCH   4   5
ATOM      5  C   UNL     1       5.205   4.314   2.825  0.00  0.00    +0.000 A 
ATOM      6  C   UNL     1       5.264   3.037   2.291  0.00  0.00    +0.000 A 
ATOM      7  C   UNL     1       6.447   2.308   2.332  0.00  0.00    +0.000 A 
ATOM      8  C   UNL     1       7.600   2.862   2.849  0.00  0.00    +0.000 A 
ATOM      9  C   UNL     1       7.550   4.145   3.329  0.00  0.00    +0.000 A 
ATOM     10  C   UNL     1       6.358   4.868   3.319  0.00  0.00    +0.000 A 
BRANCH   8  11
ATOM     11  O   UNL     1       8.800   2.182   2.896  0.00  0.00    +0.000 OA
ATOM     12  C   UNL     1       8.877   0.938   2.225  0.00  0.00    +0.000 C 
ENDBRANCH   8  11
ENDBRANCH   4   5
ENDBRANCH   1   3
BRANCH   1  13
ATOM     13  O   UNL     1       1.606   6.547   2.976  0.00  0.00    +0.000 OA
BRANCH  13  14
ATOM     14  C   UNL     1       0.824   6.792   4.009  0.00  0.00    +0.000 C 
BRANCH  14  15
ATOM     15  C   UNL     1      -0.589   6.319   3.720  0.00  0.00    +0.000 C 
ATOM     16  C   UNL     1      -1.489   7.388   3.109  0.00  0.00    +0.000 C 
ENDBRANCH  14  15
BRANCH  14  17
ATOM     17  C   UNL     1       1.343   6.135   5.278  0.00  0.00    +0.000 C 
BRANCH  17  18
ATOM     18  C   UNL     1       1.213   4.647   5.313  0.00  0.00    +0.000 C 
BRANCH  18  20
ATOM     19  C   UNL     1      -0.666   4.302   6.926  0.00  0.00    +0.000 C 
ATOM     20  C   UNL     1       0.817   4.130   6.674  0.00  0.00    +0.000 C 
ENDBRANCH  18  20
ENDBRANCH  17  18
ENDBRANCH  14  17
ENDBRANCH  13  14
ENDBRANCH   1  13
TORSDOF 9
ENDMDL
MODEL 6
REMARK VINA RESULT:      -4.0      1.088      1.983
REMARK  Name = s3_orig_f12_ligand
REMARK  12 active torsions:
REMARK  status: ('A' for Active; 'I' for Inactive)
REMARK    1  A    between atoms: C_1  and  C_2
REMARK    2  A    between atoms: C_2  and  C_3
REMARK    3  A    between atoms: C_3  and  C_4
REMARK    4  A    between atoms: C_4  and  C_5
REMARK    5  A    between atoms: C_5  and  C_6
REMARK    6  A    between atoms: C_5  and  O_8
REMARK    7  A    between atoms: C_6  and  C_7
REMARK    8  A    between atoms: O_8  and  C_9
REMARK    9  A    between atoms: C_9  and  C_11
REMARK   10  A    between atoms: C_12  and  C_13
REMARK   11  A    between atoms: C_16  and  O_17
REMARK   12  A    between atoms: O_17  and  C_18
REMARK                            x       y       z     vdW  Elec       q    Type
REMARK                         _______ _______ _______ _____ _____    ______ ____
ROOT
ATOM      1  C   UNL     1       1.929   5.400   5.342  0.00  0.00    +0.000 C 
ATOM      2  O   UNL     1       2.408   6.220   6.082  0.00  0.00    +0.000 OA
ENDROOT
BRANCH   1   3
ATOM      3  C   UNL     1       2.679   4.713   4.264  0.00  0.00    +0.000 C 
ATOM      4  C   UNL     1       3.794   5.224   3.745  0.00  0.00    +0.000 C 
BRANCH   4   5
ATOM      5  C   UNL     1       4.531   4.633   2.600  0.00  0.00    +0.000 A 
ATOM      6  C   UNL     1       5.186   3.424   2.768  0.00  0.00    +0.000 A 
ATOM      7  C   UNL     1       5.951   2.886   1.739  0.00  0.00    +0.000 A 
ATOM      8  C   UNL     1       6.023   3.513   0.512  0.00  0.00    +0.000 A 
ATOM      9  C   UNL     1       5.331   4.682   0.333  0.00  0.00    +0.000 A 
ATOM     10  C   UNL     1       4.589   5.241   1.373  0.00  0.00    +0.000 A 
BRANCH   8  11
ATOM     11  O   UNL     1       6.755   3.008  -0.543  0.00  0.00    +0.000 OA
ATOM     12  C   UNL     1       8.106   2.661  -0.298  0.00  0.00    +0.000 C 
ENDBRANCH   8  11
ENDBRANCH   4   5
ENDBRANCH   1   3
BRANCH   1  13
ATOM     13  O   UNL     1       0.727   5.131   5.461  0.00  0.00    +0.000 OA
BRANCH  13  14
ATOM     14  C   UNL     1      -0.591   5.163   5.413  0.00  0.00    +0.000 C 
BRANCH  14  15
ATOM     15  C   UNL     1      -1.174   4.727   6.744  0.00  0.00    +0.000 C 
ATOM     16  C   UNL     1      -2.131   5.740   7.365  0.00  0.00    +0.000 C 
ENDBRANCH  14  15
BRANCH  14  17
ATOM     17  C   UNL     1      -1.109   6.544   5.044  0.00  0.00    +0.000 C 
BRANCH  17  18
ATOM     18  C   UNL     1      -1.191   6.813   3.577  0.00  0.00    +0.000 C 
BRANCH  18  20
ATOM     19  C   UNL     1       0.774   6.943   2.037  0.00  0.00    +0.000 C 
ATOM     20  C   UNL     1      -0.053   7.667   3.078  0.00  0.00    +0.000 C 
ENDBRANCH  18  20
ENDBRANCH  17  18
ENDBRANCH  14  17
ENDBRANCH  13  14
ENDBRANCH   1  13
TORSDOF 9
ENDMDL
MODEL 7
REMARK VINA RESULT:      -4.0      2.234      3.652
REMARK  Name = s3_orig_f12_ligand
REMARK  12 active torsions:
REMARK  status: ('A' for Active; 'I' for Inactive)
REMARK    1  A    between atoms: C_1  and  C_2
REMARK    2  A    between atoms: C_2  and  C_3
REMARK    3  A    between atoms: C_3  and  C_4
REMARK    4  A    between atoms: C_4  and  C_5
REMARK    5  A    between atoms: C_5  and  C_6
REMARK    6  A    between atoms: C_5  and  O_8
REMARK    7  A    between atoms: C_6  and  C_7
REMARK    8  A    between atoms: O_8  and  C_9
REMARK    9  A    between atoms: C_9  and  C_11
REMARK   10  A    between atoms: C_12  and  C_13
REMARK   11  A    between atoms: C_16  and  O_17
REMARK   12  A    between atoms: O_17  and  C_18
REMARK                            x       y       z     vdW  Elec       q    Type
REMARK                         _______ _______ _______ _____ _____    ______ ____
ROOT
ATOM      1  C   UNL     1       2.426   6.276   2.686  0.00  0.00    +0.000 C 
ATOM      2  O   UNL     1       1.710   6.581   1.768  0.00  0.00    +0.000 OA
ENDROOT
BRANCH   1   3
ATOM      3  C   UNL     1       3.790   5.718   2.528  0.00  0.00    +0.000 C 
ATOM      4  C   UNL     1       4.093   4.478   2.908  0.00  0.00    +0.000 C 
BRANCH   4   5
ATOM      5  C   UNL     1       5.459   3.900   2.865  0.00  0.00    +0.000 A 
ATOM      6  C   UNL     1       5.648   2.649   2.301  0.00  0.00    +0.000 A 
ATOM      7  C   UNL     1       6.901   2.048   2.319  0.00  0.00    +0.000 A 
ATOM      8  C   UNL     1       7.993   2.709   2.843  0.00  0.00    +0.000 A 
ATOM      9  C   UNL     1       7.812   3.967   3.353  0.00  0.00    +0.000 A 
ATOM     10  C   UNL     1       6.551   4.561   3.367  0.00  0.00    +0.000 A 
BRANCH   8  11
ATOM     11  O   UNL     1       9.258   2.158   2.868  0.00  0.00    +0.000 OA
ATOM     12  C   UNL     1       9.385   0.787   2.539  0.00  0.00    +0.000 C 
ENDBRANCH   8  11
ENDBRANCH   4   5
ENDBRANCH   1   3
BRANCH   1  13
ATOM     13  O   UNL     1       1.992   6.403   3.839  0.00  0.00    +0.000 OA
BRANCH  13  14
ATOM     14  C   UNL     1       1.510   6.174   5.045  0.00  0.00    +0.000 C 
BRANCH  14  15
ATOM     15  C   UNL     1       1.309   4.684   5.254  0.00  0.00    +0.000 C 
ATOM     16  C   UNL     1      -0.136   4.286   5.536  0.00  0.00    +0.000 C 
ENDBRANCH  14  15
BRANCH  14  17
ATOM     17  C   UNL     1       2.415   6.735   6.130  0.00  0.00    +0.000 C 
BRANCH  17  18
ATOM     18  C   UNL     1       3.654   5.941   6.386  0.00  0.00    +0.000 C 
BRANCH  18  20
ATOM     19  C   UNL     1       6.130   6.131   6.677  0.00  0.00    +0.000 C 
ATOM     20  C   UNL     1       4.907   6.664   5.961  0.00  0.00    +0.000 C 
ENDBRANCH  18  20
ENDBRANCH  17  18
ENDBRANCH  14  17
ENDBRANCH  13  14
ENDBRANCH   1  13
TORSDOF 9
ENDMDL
MODEL 8
REMARK VINA RESULT:      -4.0      3.339      9.435
REMARK  Name = s3_orig_f12_ligand
REMARK  12 active torsions:
REMARK  status: ('A' for Active; 'I' for Inactive)
REMARK    1  A    between atoms: C_1  and  C_2
REMARK    2  A    between atoms: C_2  and  C_3
REMARK    3  A    between atoms: C_3  and  C_4
REMARK    4  A    between atoms: C_4  and  C_5
REMARK    5  A    between atoms: C_5  and  C_6
REMARK    6  A    between atoms: C_5  and  O_8
REMARK    7  A    between atoms: C_6  and  C_7
REMARK    8  A    between atoms: O_8  and  C_9
REMARK    9  A    between atoms: C_9  and  C_11
REMARK   10  A    between atoms: C_12  and  C_13
REMARK   11  A    between atoms: C_16  and  O_17
REMARK   12  A    between atoms: O_17  and  C_18
REMARK                            x       y       z     vdW  Elec       q    Type
REMARK                         _______ _______ _______ _____ _____    ______ ____
ROOT
ATOM      1  C   UNL     1       9.082   1.764  -1.066  0.00  0.00    +0.000 C 
ATOM      2  O   UNL     1       9.448   0.617  -1.051  0.00  0.00    +0.000 OA
ENDROOT
BRANCH   1   3
ATOM      3  C   UNL     1       8.193   2.368  -0.045  0.00  0.00    +0.000 C 
ATOM      4  C   UNL     1       7.013   2.896  -0.363  0.00  0.00    +0.000 C 
BRANCH   4   5
ATOM      5  C   UNL     1       6.126   3.600   0.597  0.00  0.00    +0.000 A 
ATOM      6  C   UNL     1       6.044   3.144   1.903  0.00  0.00    +0.000 A 
ATOM      7  C   UNL     1       5.161   3.733   2.802  0.00  0.00    +0.000 A 
ATOM      8  C   UNL     1       4.397   4.820   2.431  0.00  0.00    +0.000 A 
ATOM      9  C   UNL     1       4.520   5.301   1.154  0.00  0.00    +0.000 A 
ATOM     10  C   UNL     1       5.380   4.693   0.239  0.00  0.00    +0.000 A 
BRANCH   8  11
ATOM     11  O   UNL     1       3.521   5.446   3.294  0.00  0.00    +0.000 OA
ATOM     12  C   UNL     1       3.034   6.723   2.924  0.00  0.00    +0.000 C 
ENDBRANCH   8  11
ENDBRANCH   4   5
ENDBRANCH   1   3
BRANCH   1  13
ATOM     13  O   UNL     1       9.440   2.483  -2.007  0.00  0.00    +0.000 OA
BRANCH  13  14
ATOM     14  C   UNL     1       9.567   3.057  -3.188  0.00  0.00    +0.000 C 
BRANCH  14  15
ATOM     15  C   UNL     1       8.466   2.588  -4.120  0.00  0.00    +0.000 C 
ATOM     16  C   UNL     1       8.753   1.254  -4.801  0.00  0.00    +0.000 C 
ENDBRANCH  14  15
BRANCH  14  17
ATOM     17  C   UNL     1       9.549   4.574  -3.083  0.00  0.00    +0.000 C 
BRANCH  17  18
ATOM     18  C   UNL     1       8.292   5.222  -3.564  0.00  0.00    +0.000 C 
BRANCH  18  20
ATOM     19  C   UNL     1       8.450   6.223  -1.278  0.00  0.00    +0.000 C 
ATOM     20  C   UNL     1       7.552   5.943  -2.465  0.00  0.00    +0.000 C 
ENDBRANCH  18  20
ENDBRANCH  17  18
ENDBRANCH  14  17
ENDBRANCH  13  14
ENDBRANCH   1  13
TORSDOF 9
ENDMDL
MODEL 9
REMARK VINA RESULT:      -3.9      1.821      2.288
REMARK  Name = s3_orig_f12_ligand
REMARK  12 active torsions:
REMARK  status: ('A' for Active; 'I' for Inactive)
REMARK    1  A    between atoms: C_1  and  C_2
REMARK    2  A    between atoms: C_2  and  C_3
REMARK    3  A    between atoms: C_3  and  C_4
REMARK    4  A    between atoms: C_4  and  C_5
REMARK    5  A    between atoms: C_5  and  C_6
REMARK    6  A    between atoms: C_5  and  O_8
REMARK    7  A    between atoms: C_6  and  C_7
REMARK    8  A    between atoms: O_8  and  C_9
REMARK    9  A    between atoms: C_9  and  C_11
REMARK   10  A    between atoms: C_12  and  C_13
REMARK   11  A    between atoms: C_16  and  O_17
REMARK   12  A    between atoms: O_17  and  C_18
REMARK                            x       y       z     vdW  Elec       q    Type
REMARK                         _______ _______ _______ _____ _____    ______ ____
ROOT
ATOM      1  C   UNL     1       2.035   6.508   3.072  0.00  0.00    +0.000 C 
ATOM      2  O   UNL     1       1.794   7.623   2.687  0.00  0.00    +0.000 OA
ENDROOT
BRANCH   1   3
ATOM      3  C   UNL     1       3.235   5.733   2.679  0.00  0.00    +0.000 C 
ATOM      4  C   UNL     1       3.963   5.061   3.569  0.00  0.00    +0.000 C 
BRANCH   4   5
ATOM      5  C   UNL     1       5.226   4.349   3.251  0.00  0.00    +0.000 A 
ATOM      6  C   UNL     1       5.171   3.142   2.574  0.00  0.00    +0.000 A 
ATOM      7  C   UNL     1       6.331   2.414   2.334  0.00  0.00    +0.000 A 
ATOM      8  C   UNL     1       7.564   2.907   2.709  0.00  0.00    +0.000 A 
ATOM      9  C   UNL     1       7.618   4.126   3.333  0.00  0.00    +0.000 A 
ATOM     10  C   UNL     1       6.455   4.845   3.605  0.00  0.00    +0.000 A 
BRANCH   8  11
ATOM     11  O   UNL     1       8.742   2.227   2.477  0.00  0.00    +0.000 OA
ATOM     12  C   UNL     1       8.693   1.102   1.619  0.00  0.00    +0.000 C 
ENDBRANCH   8  11
ENDBRANCH   4   5
ENDBRANCH   1   3
BRANCH   1  13
ATOM     13  O   UNL     1       1.217   5.954   3.818  0.00  0.00    +0.000 OA
BRANCH  13  14
ATOM     14  C   UNL     1       0.241   5.209   4.299  0.00  0.00    +0.000 C 
BRANCH  14  15
ATOM     15  C   UNL     1       0.800   4.156   5.238  0.00  0.00    +0.000 C 
ATOM     16  C   UNL     1       1.416   4.724   6.513  0.00  0.00    +0.000 C 
ENDBRANCH  14  15
BRANCH  14  17
ATOM     17  C   UNL     1      -0.805   6.046   5.019  0.00  0.00    +0.000 C 
BRANCH  17  18
ATOM     18  C   UNL     1      -1.430   7.119   4.189  0.00  0.00    +0.000 C 
BRANCH  18  20
ATOM     19  C   UNL     1      -0.214   8.461   5.912  0.00  0.00    +0.000 C 
ATOM     20  C   UNL     1      -1.087   8.505   4.676  0.00  0.00    +0.000 C 
ENDBRANCH  18  20
ENDBRANCH  17  18
ENDBRANCH  14  17
ENDBRANCH  13  14
ENDBRANCH   1  13
TORSDOF 9
ENDMDL
