REMARK  Name = s3_esm2_f4_ligand
REMARK  12 active torsions:
REMARK  status: ('A' for Active; 'I' for Inactive)
REMARK    1  A    between atoms: C_1  and  C_2
REMARK    2  A    between atoms: C_2  and  C_3
REMARK    3  A    between atoms: C_3  and  C_4
REMARK    4  A    between atoms: C_4  and  C_5
REMARK    5  A    between atoms: C_5  and  C_6
REMARK    6  A    between atoms: C_5  and  O_8
REMARK    7  A    between atoms: C_6  and  C_7
REMARK    8  A    between atoms: O_8  and  C_9
REMARK    9  A    between atoms: C_9  and  C_11
REMARK   10  A    between atoms: C_12  and  C_13
REMARK   11  A    between atoms: C_16  and  O_17
REMARK   12  A    between atoms: O_17  and  C_18
REMARK                            x       y       z     vdW  Elec       q    Type
REMARK                         _______ _______ _______ _____ _____    ______ ____
ROOT
ATOM      1  C   UNL     1      -5.495  -3.061   1.441  0.00  0.00    +0.000 C 
ATOM      2  O   UNL     1      -5.283  -2.713   2.571  0.00  0.00    +0.000 OA
ENDROOT
BRANCH   1   3
ATOM      3  C   UNL     1      -4.432  -3.390   0.496  0.00  0.00    +0.000 C 
ATOM      4  C   UNL     1      -4.701  -4.024  -0.639  0.00  0.00    +0.000 C 
BRANCH   4   5
ATOM      5  C   UNL     1      -3.713  -4.201  -1.726  0.00  0.00    +0.000 A 
ATOM      6  C   UNL     1      -2.527  -3.497  -1.737  0.00  0.00    +0.000 A 
ATOM      7  C   UNL     1      -1.638  -3.658  -2.784  0.00  0.00    +0.000 A 
ATOM      8  C   UNL     1      -1.917  -4.505  -3.814  0.00  0.00    +0.000 A 
ATOM      9  C   UNL     1      -3.099  -5.216  -3.801  0.00  0.00    +0.000 A 
ATOM     10  C   UNL     1      -3.987  -5.059  -2.757  0.00  0.00    +0.000 A 
BRANCH   8  11
ATOM     11  O   UNL     1      -1.028  -4.628  -4.824  0.00  0.00    +0.000 OA
ATOM     12  C   UNL     1      -1.428  -5.220  -6.049  0.00  0.00    +0.000 C 
ENDBRANCH   8  11
ENDBRANCH   4   5
ENDBRANCH   1   3
BRANCH   1  13
ATOM     13  O   UNL     1      -6.755  -3.150   0.943  0.00  0.00    +0.000 OA
BRANCH  13  14
ATOM     14  C   UNL     1      -7.822  -2.547   1.652  0.00  0.00    +0.000 C 
BRANCH  14  15
ATOM     15  C   UNL     1      -8.664  -1.714   0.715  0.00  0.00    +0.000 C 
ATOM     16  C   UNL     1      -7.977  -1.327  -0.561  0.00  0.00    +0.000 C 
ENDBRANCH  14  15
BRANCH  14  17
ATOM     17  C   UNL     1      -8.684  -3.634   2.280  0.00  0.00    +0.000 C 
BRANCH  17  18
ATOM     18  C   UNL     1      -8.363  -3.819   3.736  0.00  0.00    +0.000 C 
BRANCH  18  20
ATOM     19  C   UNL     1      -9.099  -4.806   5.910  0.00  0.00    +0.000 C 
ATOM     20  C   UNL     1      -9.401  -4.678   4.414  0.00  0.00    +0.000 C 
ENDBRANCH  18  20
ENDBRANCH  17  18
ENDBRANCH  14  17
ENDBRANCH  13  14
ENDBRANCH   1  13
TORSDOF 9
