MODEL 1
REMARK VINA RESULT:      -5.1      0.000      0.000
REMARK  Name = s3_esm2_f4_ligand
REMARK  12 active torsions:
REMARK  status: ('A' for Active; 'I' for Inactive)
REMARK    1  A    between atoms: C_1  and  C_2
REMARK    2  A    between atoms: C_2  and  C_3
REMARK    3  A    between atoms: C_3  and  C_4
REMARK    4  A    between atoms: C_4  and  C_5
REMARK    5  A    between atoms: C_5  and  C_6
REMARK    6  A    between atoms: C_5  and  O_8
REMARK    7  A    between atoms: C_6  and  C_7
REMARK    8  A    between atoms: O_8  and  C_9
REMARK    9  A    between atoms: C_9  and  C_11
REMARK   10  A    between atoms: C_12  and  C_13
REMARK   11  A    between atoms: C_16  and  O_17
REMARK   12  A    between atoms: O_17  and  C_18
REMARK                            x       y       z     vdW  Elec       q    Type
REMARK                         _______ _______ _______ _____ _____    ______ ____
ROOT
ATOM      1  C   UNL     1      -4.398  -5.636   0.137  0.00  0.00    +0.000 C 
ATOM      2  O   UNL     1      -5.258  -5.432   0.951  0.00  0.00    +0.000 OA
ENDROOT
BRANCH   1   3
ATOM      3  C   UNL     1      -4.313  -6.868  -0.641  0.00  0.00    +0.000 C 
ATOM      4  C   UNL     1      -5.357  -7.312  -1.330  0.00  0.00    +0.000 C 
BRANCH   4   5
ATOM      5  C   UNL     1      -5.279  -8.429  -2.297  0.00  0.00    +0.000 A 
ATOM      6  C   UNL     1      -6.408  -9.116  -2.691  0.00  0.00    +0.000 A 
ATOM      7  C   UNL     1      -6.299 -10.178  -3.570  0.00  0.00    +0.000 A 
ATOM      8  C   UNL     1      -5.086 -10.561  -4.056  0.00  0.00    +0.000 A 
ATOM      9  C   UNL     1      -3.956  -9.871  -3.670  0.00  0.00    +0.000 A 
ATOM     10  C   UNL     1      -4.061  -8.810  -2.794  0.00  0.00    +0.000 A 
BRANCH   8  11
ATOM     11  O   UNL     1      -5.018 -11.610  -4.905  0.00  0.00    +0.000 OA
ATOM     12  C   UNL     1      -4.355 -12.799  -4.509  0.00  0.00    +0.000 C 
ENDBRANCH   8  11
ENDBRANCH   4   5
ENDBRANCH   1   3
BRANCH   1  13
ATOM     13  O   UNL     1      -3.411  -4.735  -0.104  0.00  0.00    +0.000 OA
BRANCH  13  14
ATOM     14  C   UNL     1      -3.357  -4.090  -1.363  0.00  0.00    +0.000 C 
BRANCH  14  15
ATOM     15  C   UNL     1      -3.334  -2.591  -1.180  0.00  0.00    +0.000 C 
ATOM     16  C   UNL     1      -4.689  -1.957  -1.067  0.00  0.00    +0.000 C 
ENDBRANCH  14  15
BRANCH  14  17
ATOM     17  C   UNL     1      -2.099  -4.532  -2.099  0.00  0.00    +0.000 C 
BRANCH  17  18
ATOM     18  C   UNL     1      -1.545  -3.428  -2.954  0.00  0.00    +0.000 C 
BRANCH  18  20
ATOM     19  C   UNL     1       0.945  -3.634  -2.982  0.00  0.00    +0.000 C 
ATOM     20  C   UNL     1      -0.354  -3.905  -3.747  0.00  0.00    +0.000 C 
ENDBRANCH  18  20
ENDBRANCH  17  18
ENDBRANCH  14  17
ENDBRANCH  13  14
ENDBRANCH   1  13
TORSDOF 9
ENDMDL
MODEL 2
REMARK VINA RESULT:      -5.1      2.704      6.130
REMARK  Name = s3_esm2_f4_ligand
REMARK  12 active torsions:
REMARK  status: ('A' for Active; 'I' for Inactive)
REMARK    1  A    between atoms: C_1  and  C_2
REMARK    2  A    between atoms: C_2  and  C_3
REMARK    3  A    between atoms: C_3  and  C_4
REMARK    4  A    between atoms: C_4  and  C_5
REMARK    5  A    between atoms: C_5  and  C_6
REMARK    6  A    between atoms: C_5  and  O_8
REMARK    7  A    between atoms: C_6  and  C_7
REMARK    8  A    between atoms: O_8  and  C_9
REMARK    9  A    between atoms: C_9  and  C_11
REMARK   10  A    between atoms: C_12  and  C_13
REMARK   11  A    between atoms: C_16  and  O_17
REMARK   12  A    between atoms: O_17  and  C_18
REMARK                            x       y       z     vdW  Elec       q    Type
REMARK                         _______ _______ _______ _____ _____    ______ ____
ROOT
ATOM      1  C   UNL     1      -4.264  -3.225  -1.470  0.00  0.00    +0.000 C 
ATOM      2  O   UNL     1      -4.574  -2.209  -0.909  0.00  0.00    +0.000 OA
ENDROOT
BRANCH   1   3
ATOM      3  C   UNL     1      -3.088  -3.333  -2.329  0.00  0.00    +0.000 C 
ATOM      4  C   UNL     1      -2.116  -4.193  -2.049  0.00  0.00    +0.000 C 
BRANCH   4   5
ATOM      5  C   UNL     1      -1.008  -4.500  -2.979  0.00  0.00    +0.000 A 
ATOM      6  C   UNL     1      -1.050  -5.606  -3.803  0.00  0.00    +0.000 A 
ATOM      7  C   UNL     1       0.016  -5.886  -4.638  0.00  0.00    +0.000 A 
ATOM      8  C   UNL     1       1.117  -5.083  -4.660  0.00  0.00    +0.000 A 
ATOM      9  C   UNL     1       1.158  -3.973  -3.843  0.00  0.00    +0.000 A 
ATOM     10  C   UNL     1       0.095  -3.690  -3.010  0.00  0.00    +0.000 A 
BRANCH   8  11
ATOM     11  O   UNL     1       2.142  -5.396  -5.482  0.00  0.00    +0.000 OA
ATOM     12  C   UNL     1       2.343  -4.654  -6.674  0.00  0.00    +0.000 C 
ENDBRANCH   8  11
ENDBRANCH   4   5
ENDBRANCH   1   3
BRANCH   1  13
ATOM     13  O   UNL     1      -5.008  -4.356  -1.368  0.00  0.00    +0.000 OA
BRANCH  13  14
ATOM     14  C   UNL     1      -5.075  -5.028  -0.124  0.00  0.00    +0.000 C 
BRANCH  14  15
ATOM     15  C   UNL     1      -6.515  -5.184   0.306  0.00  0.00    +0.000 C 
ATOM     16  C   UNL     1      -6.704  -5.407   1.777  0.00  0.00    +0.000 C 
ENDBRANCH  14  15
BRANCH  14  17
ATOM     17  C   UNL     1      -4.434  -6.402  -0.262  0.00  0.00    +0.000 C 
BRANCH  17  18
ATOM     18  C   UNL     1      -5.302  -7.338  -1.054  0.00  0.00    +0.000 C 
BRANCH  18  20
ATOM     19  C   UNL     1      -4.206  -7.299  -3.298  0.00  0.00    +0.000 C 
ATOM     20  C   UNL     1      -4.483  -8.130  -2.042  0.00  0.00    +0.000 C 
ENDBRANCH  18  20
ENDBRANCH  17  18
ENDBRANCH  14  17
ENDBRANCH  13  14
ENDBRANCH   1  13
TORSDOF 9
ENDMDL
MODEL 3
REMARK VINA RESULT:      -5.0      1.096      1.716
REMARK  Name = s3_esm2_f4_ligand
REMARK  12 active torsions:
REMARK  status: ('A' for Active; 'I' for Inactive)
REMARK    1  A    between atoms: C_1  and  C_2
REMARK    2  A    between atoms: C_2  and  C_3
REMARK    3  A    between atoms: C_3  and  C_4
REMARK    4  A    between atoms: C_4  and  C_5
REMARK    5  A    between atoms: C_5  and  C_6
REMARK    6  A    between atoms: C_5  and  O_8
REMARK    7  A    between atoms: C_6  and  C_7
REMARK    8  A    between atoms: O_8  and  C_9
REMARK    9  A    between atoms: C_9  and  C_11
REMARK   10  A    between atoms: C_12  and  C_13
REMARK   11  A    between atoms: C_16  and  O_17
REMARK   12  A    between atoms: O_17  and  C_18
REMARK                            x       y       z     vdW  Elec       q    Type
REMARK                         _______ _______ _______ _____ _____    ______ ____
ROOT
ATOM      1  C   UNL     1      -3.651  -5.248  -0.450  0.00  0.00    +0.000 C 
ATOM      2  O   UNL     1      -4.116  -5.247   0.658  0.00  0.00    +0.000 OA
ENDROOT
BRANCH   1   3
ATOM      3  C   UNL     1      -3.972  -6.264  -1.447  0.00  0.00    +0.000 C 
ATOM      4  C   UNL     1      -4.583  -7.391  -1.100  0.00  0.00    +0.000 C 
BRANCH   4   5
ATOM      5  C   UNL     1      -5.119  -8.361  -2.081  0.00  0.00    +0.000 A 
ATOM      6  C   UNL     1      -4.286  -9.038  -2.947  0.00  0.00    +0.000 A 
ATOM      7  C   UNL     1      -4.820  -9.913  -3.875  0.00  0.00    +0.000 A 
ATOM      8  C   UNL     1      -6.165 -10.118  -3.951  0.00  0.00    +0.000 A 
ATOM      9  C   UNL     1      -6.999  -9.447  -3.080  0.00  0.00    +0.000 A 
ATOM     10  C   UNL     1      -6.469  -8.575  -2.152  0.00  0.00    +0.000 A 
BRANCH   8  11
ATOM     11  O   UNL     1      -6.649 -10.973  -4.878  0.00  0.00    +0.000 OA
ATOM     12  C   UNL     1      -7.934 -10.755  -5.437  0.00  0.00    +0.000 C 
ENDBRANCH   8  11
ENDBRANCH   4   5
ENDBRANCH   1   3
BRANCH   1  13
ATOM     13  O   UNL     1      -2.760  -4.307  -0.854  0.00  0.00    +0.000 OA
BRANCH  13  14
ATOM     14  C   UNL     1      -3.135  -3.389  -1.865  0.00  0.00    +0.000 C 
BRANCH  14  15
ATOM     15  C   UNL     1      -3.524  -2.066  -1.248  0.00  0.00    +0.000 C 
ATOM     16  C   UNL     1      -5.003  -1.843  -1.134  0.00  0.00    +0.000 C 
ENDBRANCH  14  15
BRANCH  14  17
ATOM     17  C   UNL     1      -1.963  -3.182  -2.815  0.00  0.00    +0.000 C 
BRANCH  17  18
ATOM     18  C   UNL     1      -0.966  -4.301  -2.711  0.00  0.00    +0.000 C 
BRANCH  18  20
ATOM     19  C   UNL     1       0.576  -3.020  -4.202  0.00  0.00    +0.000 C 
ATOM     20  C   UNL     1       0.442  -3.789  -2.884  0.00  0.00    +0.000 C 
ENDBRANCH  18  20
ENDBRANCH  17  18
ENDBRANCH  14  17
ENDBRANCH  13  14
ENDBRANCH   1  13
TORSDOF 9
ENDMDL
MODEL 4
REMARK VINA RESULT:      -4.9      4.375      9.642
REMARK  Name = s3_esm2_f4_ligand
REMARK  12 active torsions:
REMARK  status: ('A' for Active; 'I' for Inactive)
REMARK    1  A    between atoms: C_1  and  C_2
REMARK    2  A    between atoms: C_2  and  C_3
REMARK    3  A    between atoms: C_3  and  C_4
REMARK    4  A    between atoms: C_4  and  C_5
REMARK    5  A    between atoms: C_5  and  C_6
REMARK    6  A    between atoms: C_5  and  O_8
REMARK    7  A    between atoms: C_6  and  C_7
REMARK    8  A    between atoms: O_8  and  C_9
REMARK    9  A    between atoms: C_9  and  C_11
REMARK   10  A    between atoms: C_12  and  C_13
REMARK   11  A    between atoms: C_16  and  O_17
REMARK   12  A    between atoms: O_17  and  C_18
REMARK                            x       y       z     vdW  Elec       q    Type
REMARK                         _______ _______ _______ _____ _____    ______ ____
ROOT
ATOM      1  C   UNL     1      -5.098  -1.932  -1.046  0.00  0.00    +0.000 C 
ATOM      2  O   UNL     1      -6.029  -2.079  -0.302  0.00  0.00    +0.000 OA
ENDROOT
BRANCH   1   3
ATOM      3  C   UNL     1      -4.416  -0.653  -1.226  0.00  0.00    +0.000 C 
ATOM      4  C   UNL     1      -5.102   0.457  -1.468  0.00  0.00    +0.000 C 
BRANCH   4   5
ATOM      5  C   UNL     1      -4.496   1.807  -1.453  0.00  0.00    +0.000 A 
ATOM      6  C   UNL     1      -4.748   2.715  -2.461  0.00  0.00    +0.000 A 
ATOM      7  C   UNL     1      -4.140   3.958  -2.437  0.00  0.00    +0.000 A 
ATOM      8  C   UNL     1      -3.290   4.301  -1.430  0.00  0.00    +0.000 A 
ATOM      9  C   UNL     1      -3.043   3.397  -0.418  0.00  0.00    +0.000 A 
ATOM     10  C   UNL     1      -3.649   2.158  -0.437  0.00  0.00    +0.000 A 
BRANCH   8  11
ATOM     11  O   UNL     1      -2.708   5.521  -1.448  0.00  0.00    +0.000 OA
ATOM     12  C   UNL     1      -3.513   6.688  -1.441  0.00  0.00    +0.000 C 
ENDBRANCH   8  11
ENDBRANCH   4   5
ENDBRANCH   1   3
BRANCH   1  13
ATOM     13  O   UNL     1      -4.620  -2.950  -1.806  0.00  0.00    +0.000 OA
BRANCH  13  14
ATOM     14  C   UNL     1      -3.389  -3.556  -1.454  0.00  0.00    +0.000 C 
BRANCH  14  15
ATOM     15  C   UNL     1      -3.568  -5.049  -1.308  0.00  0.00    +0.000 C 
ATOM     16  C   UNL     1      -4.024  -5.491   0.051  0.00  0.00    +0.000 C 
ENDBRANCH  14  15
BRANCH  14  17
ATOM     17  C   UNL     1      -2.361  -3.271  -2.541  0.00  0.00    +0.000 C 
BRANCH  17  18
ATOM     18  C   UNL     1      -1.375  -4.396  -2.675  0.00  0.00    +0.000 C 
BRANCH  18  20
ATOM     19  C   UNL     1       0.993  -3.653  -2.958  0.00  0.00    +0.000 C 
ATOM     20  C   UNL     1      -0.298  -4.056  -3.675  0.00  0.00    +0.000 C 
ENDBRANCH  18  20
ENDBRANCH  17  18
ENDBRANCH  14  17
ENDBRANCH  13  14
ENDBRANCH   1  13
TORSDOF 9
ENDMDL
MODEL 5
REMARK VINA RESULT:      -4.7      2.849      6.856
REMARK  Name = s3_esm2_f4_ligand
REMARK  12 active torsions:
REMARK  status: ('A' for Active; 'I' for Inactive)
REMARK    1  A    between atoms: C_1  and  C_2
REMARK    2  A    between atoms: C_2  and  C_3
REMARK    3  A    between atoms: C_3  and  C_4
REMARK    4  A    between atoms: C_4  and  C_5
REMARK    5  A    between atoms: C_5  and  C_6
REMARK    6  A    between atoms: C_5  and  O_8
REMARK    7  A    between atoms: C_6  and  C_7
REMARK    8  A    between atoms: O_8  and  C_9
REMARK    9  A    between atoms: C_9  and  C_11
REMARK   10  A    between atoms: C_12  and  C_13
REMARK   11  A    between atoms: C_16  and  O_17
REMARK   12  A    between atoms: O_17  and  C_18
REMARK                            x       y       z     vdW  Elec       q    Type
REMARK                         _______ _______ _______ _____ _____    ______ ____
ROOT
ATOM      1  C   UNL     1      -4.044  -3.609  -1.123  0.00  0.00    +0.000 C 
ATOM      2  O   UNL     1      -4.949  -2.827  -1.238  0.00  0.00    +0.000 OA
ENDROOT
BRANCH   1   3
ATOM      3  C   UNL     1      -2.819  -3.531  -1.912  0.00  0.00    +0.000 C 
ATOM      4  C   UNL     1      -2.080  -4.612  -2.133  0.00  0.00    +0.000 C 
BRANCH   4   5
ATOM      5  C   UNL     1      -0.950  -4.644  -3.088  0.00  0.00    +0.000 A 
ATOM      6  C   UNL     1       0.041  -3.686  -3.057  0.00  0.00    +0.000 A 
ATOM      7  C   UNL     1       1.067  -3.722  -3.984  0.00  0.00    +0.000 A 
ATOM      8  C   UNL     1       1.113  -4.695  -4.937  0.00  0.00    +0.000 A 
ATOM      9  C   UNL     1       0.126  -5.659  -4.965  0.00  0.00    +0.000 A 
ATOM     10  C   UNL     1      -0.897  -5.626  -4.041  0.00  0.00    +0.000 A 
BRANCH   8  11
ATOM     11  O   UNL     1       2.125  -4.691  -5.832  0.00  0.00    +0.000 OA
ATOM     12  C   UNL     1       2.209  -3.658  -6.799  0.00  0.00    +0.000 C 
ENDBRANCH   8  11
ENDBRANCH   4   5
ENDBRANCH   1   3
BRANCH   1  13
ATOM     13  O   UNL     1      -4.106  -4.654  -0.258  0.00  0.00    +0.000 OA
BRANCH  13  14
ATOM     14  C   UNL     1      -5.135  -5.615  -0.408  0.00  0.00    +0.000 C 
BRANCH  14  15
ATOM     15  C   UNL     1      -4.545  -6.954  -0.781  0.00  0.00    +0.000 C 
ATOM     16  C   UNL     1      -5.438  -7.814  -1.626  0.00  0.00    +0.000 C 
ENDBRANCH  14  15
BRANCH  14  17
ATOM     17  C   UNL     1      -5.896  -5.743   0.905  0.00  0.00    +0.000 C 
BRANCH  17  18
ATOM     18  C   UNL     1      -6.972  -4.701   1.021  0.00  0.00    +0.000 C 
BRANCH  18  20
ATOM     19  C   UNL     1      -6.617  -5.447   3.379  0.00  0.00    +0.000 C 
ATOM     20  C   UNL     1      -7.485  -4.608   2.436  0.00  0.00    +0.000 C 
ENDBRANCH  18  20
ENDBRANCH  17  18
ENDBRANCH  14  17
ENDBRANCH  13  14
ENDBRANCH   1  13
TORSDOF 9
ENDMDL
MODEL 6
REMARK VINA RESULT:      -4.7      4.146      6.691
REMARK  Name = s3_esm2_f4_ligand
REMARK  12 active torsions:
REMARK  status: ('A' for Active; 'I' for Inactive)
REMARK    1  A    between atoms: C_1  and  C_2
REMARK    2  A    between atoms: C_2  and  C_3
REMARK    3  A    between atoms: C_3  and  C_4
REMARK    4  A    between atoms: C_4  and  C_5
REMARK    5  A    between atoms: C_5  and  C_6
REMARK    6  A    between atoms: C_5  and  O_8
REMARK    7  A    between atoms: C_6  and  C_7
REMARK    8  A    between atoms: O_8  and  C_9
REMARK    9  A    between atoms: C_9  and  C_11
REMARK   10  A    between atoms: C_12  and  C_13
REMARK   11  A    between atoms: C_16  and  O_17
REMARK   12  A    between atoms: O_17  and  C_18
REMARK                            x       y       z     vdW  Elec       q    Type
REMARK                         _______ _______ _______ _____ _____    ______ ____
ROOT
ATOM      1  C   UNL     1      -3.857  -4.786  -0.600  0.00  0.00    +0.000 C 
ATOM      2  O   UNL     1      -3.801  -5.676   0.205  0.00  0.00    +0.000 OA
ENDROOT
BRANCH   1   3
ATOM      3  C   UNL     1      -2.688  -4.286  -1.317  0.00  0.00    +0.000 C 
ATOM      4  C   UNL     1      -2.295  -4.846  -2.455  0.00  0.00    +0.000 C 
BRANCH   4   5
ATOM      5  C   UNL     1      -1.255  -4.264  -3.332  0.00  0.00    +0.000 A 
ATOM      6  C   UNL     1      -0.053  -3.821  -2.821  0.00  0.00    +0.000 A 
ATOM      7  C   UNL     1       0.886  -3.251  -3.660  0.00  0.00    +0.000 A 
ATOM      8  C   UNL     1       0.641  -3.115  -4.994  0.00  0.00    +0.000 A 
ATOM      9  C   UNL     1      -0.557  -3.564  -5.508  0.00  0.00    +0.000 A 
ATOM     10  C   UNL     1      -1.495  -4.136  -4.674  0.00  0.00    +0.000 A 
BRANCH   8  11
ATOM     11  O   UNL     1       1.579  -2.543  -5.780  0.00  0.00    +0.000 OA
ATOM     12  C   UNL     1       1.582  -1.138  -5.969  0.00  0.00    +0.000 C 
ENDBRANCH   8  11
ENDBRANCH   4   5
ENDBRANCH   1   3
BRANCH   1  13
ATOM     13  O   UNL     1      -5.022  -4.152  -0.887  0.00  0.00    +0.000 OA
BRANCH  13  14
ATOM     14  C   UNL     1      -5.000  -3.013  -1.728  0.00  0.00    +0.000 C 
BRANCH  14  15
ATOM     15  C   UNL     1      -5.992  -3.179  -2.855  0.00  0.00    +0.000 C 
ATOM     16  C   UNL     1      -5.435  -2.897  -4.219  0.00  0.00    +0.000 C 
ENDBRANCH  14  15
BRANCH  14  17
ATOM     17  C   UNL     1      -5.361  -1.780  -0.910  0.00  0.00    +0.000 C 
BRANCH  17  18
ATOM     18  C   UNL     1      -4.396  -0.654  -1.157  0.00  0.00    +0.000 C 
BRANCH  18  20
ATOM     19  C   UNL     1      -6.569   0.402  -1.796  0.00  0.00    +0.000 C 
ATOM     20  C   UNL     1      -5.046   0.450  -1.953  0.00  0.00    +0.000 C 
ENDBRANCH  18  20
ENDBRANCH  17  18
ENDBRANCH  14  17
ENDBRANCH  13  14
ENDBRANCH   1  13
TORSDOF 9
ENDMDL
MODEL 7
REMARK VINA RESULT:      -4.7      2.404      6.700
REMARK  Name = s3_esm2_f4_ligand
REMARK  12 active torsions:
REMARK  status: ('A' for Active; 'I' for Inactive)
REMARK    1  A    between atoms: C_1  and  C_2
REMARK    2  A    between atoms: C_2  and  C_3
REMARK    3  A    between atoms: C_3  and  C_4
REMARK    4  A    between atoms: C_4  and  C_5
REMARK    5  A    between atoms: C_5  and  C_6
REMARK    6  A    between atoms: C_5  and  O_8
REMARK    7  A    between atoms: C_6  and  C_7
REMARK    8  A    between atoms: O_8  and  C_9
REMARK    9  A    between atoms: C_9  and  C_11
REMARK   10  A    between atoms: C_12  and  C_13
REMARK   11  A    between atoms: C_16  and  O_17
REMARK   12  A    between atoms: O_17  and  C_18
REMARK                            x       y       z     vdW  Elec       q    Type
REMARK                         _______ _______ _______ _____ _____    ______ ____
ROOT
ATOM      1  C   UNL     1      -3.766  -5.169  -0.805  0.00  0.00    +0.000 C 
ATOM      2  O   UNL     1      -3.650  -5.285   0.385  0.00  0.00    +0.000 OA
ENDROOT
BRANCH   1   3
ATOM      3  C   UNL     1      -2.834  -4.400  -1.625  0.00  0.00    +0.000 C 
ATOM      4  C   UNL     1      -1.857  -5.002  -2.294  0.00  0.00    +0.000 C 
BRANCH   4   5
ATOM      5  C   UNL     1      -1.015  -4.316  -3.298  0.00  0.00    +0.000 A 
ATOM      6  C   UNL     1       0.210  -3.780  -2.960  0.00  0.00    +0.000 A 
ATOM      7  C   UNL     1       0.959  -3.114  -3.912  0.00  0.00    +0.000 A 
ATOM      8  C   UNL     1       0.503  -2.975  -5.189  0.00  0.00    +0.000 A 
ATOM      9  C   UNL     1      -0.718  -3.517  -5.531  0.00  0.00    +0.000 A 
ATOM     10  C   UNL     1      -1.467  -4.183  -4.584  0.00  0.00    +0.000 A 
BRANCH   8  11
ATOM     11  O   UNL     1       1.260  -2.309  -6.089  0.00  0.00    +0.000 OA
ATOM     12  C   UNL     1       2.258  -3.000  -6.822  0.00  0.00    +0.000 C 
ENDBRANCH   8  11
ENDBRANCH   4   5
ENDBRANCH   1   3
BRANCH   1  13
ATOM     13  O   UNL     1      -4.801  -5.728  -1.483  0.00  0.00    +0.000 OA
BRANCH  13  14
ATOM     14  C   UNL     1      -5.164  -7.068  -1.204  0.00  0.00    +0.000 C 
BRANCH  14  15
ATOM     15  C   UNL     1      -6.582  -7.127  -0.688  0.00  0.00    +0.000 C 
ATOM     16  C   UNL     1      -7.448  -8.150  -1.361  0.00  0.00    +0.000 C 
ENDBRANCH  14  15
BRANCH  14  17
ATOM     17  C   UNL     1      -5.053  -7.893  -2.480  0.00  0.00    +0.000 C 
BRANCH  17  18
ATOM     18  C   UNL     1      -3.702  -8.538  -2.604  0.00  0.00    +0.000 C 
BRANCH  18  20
ATOM     19  C   UNL     1      -1.931  -8.038  -4.294  0.00  0.00    +0.000 C 
ATOM     20  C   UNL     1      -3.300  -8.680  -4.050  0.00  0.00    +0.000 C 
ENDBRANCH  18  20
ENDBRANCH  17  18
ENDBRANCH  14  17
ENDBRANCH  13  14
ENDBRANCH   1  13
TORSDOF 9
ENDMDL
MODEL 8
REMARK VINA RESULT:      -4.6      3.838      6.842
REMARK  Name = s3_esm2_f4_ligand
REMARK  12 active torsions:
REMARK  status: ('A' for Active; 'I' for Inactive)
REMARK    1  A    between atoms: C_1  and  C_2
REMARK    2  A    between atoms: C_2  and  C_3
REMARK    3  A    between atoms: C_3  and  C_4
REMARK    4  A    between atoms: C_4  and  C_5
REMARK    5  A    between atoms: C_5  and  C_6
REMARK    6  A    between atoms: C_5  and  O_8
REMARK    7  A    between atoms: C_6  and  C_7
REMARK    8  A    between atoms: O_8  and  C_9
REMARK    9  A    between atoms: C_9  and  C_11
REMARK   10  A    between atoms: C_12  and  C_13
REMARK   11  A    between atoms: C_16  and  O_17
REMARK   12  A    between atoms: O_17  and  C_18
REMARK                            x       y       z     vdW  Elec       q    Type
REMARK                         _______ _______ _______ _____ _____    ______ ____
ROOT
ATOM      1  C   UNL     1      -5.096  -5.727  -0.385  0.00  0.00    +0.000 C 
ATOM      2  O   UNL     1      -5.935  -6.158  -1.130  0.00  0.00    +0.000 OA
ENDROOT
BRANCH   1   3
ATOM      3  C   UNL     1      -5.318  -5.547   1.046  0.00  0.00    +0.000 C 
ATOM      4  C   UNL     1      -6.547  -5.530   1.549  0.00  0.00    +0.000 C 
BRANCH   4   5
ATOM      5  C   UNL     1      -6.833  -5.560   3.000  0.00  0.00    +0.000 A 
ATOM      6  C   UNL     1      -5.814  -5.574   3.930  0.00  0.00    +0.000 A 
ATOM      7  C   UNL     1      -6.112  -5.637   5.279  0.00  0.00    +0.000 A 
ATOM      8  C   UNL     1      -7.404  -5.688   5.708  0.00  0.00    +0.000 A 
ATOM      9  C   UNL     1      -8.424  -5.667   4.780  0.00  0.00    +0.000 A 
ATOM     10  C   UNL     1      -8.130  -5.602   3.434  0.00  0.00    +0.000 A 
BRANCH   8  11
ATOM     11  O   UNL     1      -7.655  -5.760   7.034  0.00  0.00    +0.000 OA
ATOM     12  C   UNL     1      -7.667  -4.576   7.815  0.00  0.00    +0.000 C 
ENDBRANCH   8  11
ENDBRANCH   4   5
ENDBRANCH   1   3
BRANCH   1  13
ATOM     13  O   UNL     1      -3.871  -5.345  -0.830  0.00  0.00    +0.000 OA
BRANCH  13  14
ATOM     14  C   UNL     1      -3.772  -4.267  -1.742  0.00  0.00    +0.000 C 
BRANCH  14  15
ATOM     15  C   UNL     1      -3.385  -3.003  -1.013  0.00  0.00    +0.000 C 
ATOM     16  C   UNL     1      -4.172  -1.789  -1.411  0.00  0.00    +0.000 C 
ENDBRANCH  14  15
BRANCH  14  17
ATOM     17  C   UNL     1      -2.718  -4.594  -2.791  0.00  0.00    +0.000 C 
BRANCH  17  18
ATOM     18  C   UNL     1      -1.370  -4.056  -2.403  0.00  0.00    +0.000 C 
BRANCH  18  20
ATOM     19  C   UNL     1       0.970  -3.639  -3.173  0.00  0.00    +0.000 C 
ATOM     20  C   UNL     1      -0.329  -4.407  -3.436  0.00  0.00    +0.000 C 
ENDBRANCH  18  20
ENDBRANCH  17  18
ENDBRANCH  14  17
ENDBRANCH  13  14
ENDBRANCH   1  13
TORSDOF 9
ENDMDL
MODEL 9
REMARK VINA RESULT:      -4.5      3.742      5.851
REMARK  Name = s3_esm2_f4_ligand
REMARK  12 active torsions:
REMARK  status: ('A' for Active; 'I' for Inactive)
REMARK    1  A    between atoms: C_1  and  C_2
REMARK    2  A    between atoms: C_2  and  C_3
REMARK    3  A    between atoms: C_3  and  C_4
REMARK    4  A    between atoms: C_4  and  C_5
REMARK    5  A    between atoms: C_5  and  C_6
REMARK    6  A    between atoms: C_5  and  O_8
REMARK    7  A    between atoms: C_6  and  C_7
REMARK    8  A    between atoms: O_8  and  C_9
REMARK    9  A    between atoms: C_9  and  C_11
REMARK   10  A    between atoms: C_12  and  C_13
REMARK   11  A    between atoms: C_16  and  O_17
REMARK   12  A    between atoms: O_17  and  C_18
REMARK                            x       y       z     vdW  Elec       q    Type
REMARK                         _______ _______ _______ _____ _____    ______ ____
ROOT
ATOM      1  C   UNL     1      -4.141  -5.092  -0.730  0.00  0.00    +0.000 C 
ATOM      2  O   UNL     1      -3.909  -5.525   0.366  0.00  0.00    +0.000 OA
ENDROOT
BRANCH   1   3
ATOM      3  C   UNL     1      -3.202  -5.196  -1.843  0.00  0.00    +0.000 C 
ATOM      4  C   UNL     1      -2.146  -4.396  -1.920  0.00  0.00    +0.000 C 
BRANCH   4   5
ATOM      5  C   UNL     1      -1.052  -4.585  -2.899  0.00  0.00    +0.000 A 
ATOM      6  C   UNL     1      -1.085  -5.611  -3.820  0.00  0.00    +0.000 A 
ATOM      7  C   UNL     1      -0.032  -5.783  -4.700  0.00  0.00    +0.000 A 
ATOM      8  C   UNL     1       1.046  -4.950  -4.671  0.00  0.00    +0.000 A 
ATOM      9  C   UNL     1       1.077  -3.918  -3.757  0.00  0.00    +0.000 A 
ATOM     10  C   UNL     1       0.028  -3.743  -2.879  0.00  0.00    +0.000 A 
BRANCH   8  11
ATOM     11  O   UNL     1       2.060  -5.156  -5.541  0.00  0.00    +0.000 OA
ATOM     12  C   UNL     1       1.908  -4.790  -6.902  0.00  0.00    +0.000 C 
ENDBRANCH   8  11
ENDBRANCH   4   5
ENDBRANCH   1   3
BRANCH   1  13
ATOM     13  O   UNL     1      -5.299  -4.441  -1.014  0.00  0.00    +0.000 OA
BRANCH  13  14
ATOM     14  C   UNL     1      -5.748  -4.384  -2.355  0.00  0.00    +0.000 C 
BRANCH  14  15
ATOM     15  C   UNL     1      -6.980  -5.241  -2.528  0.00  0.00    +0.000 C 
ATOM     16  C   UNL     1      -7.722  -5.527  -1.257  0.00  0.00    +0.000 C 
ENDBRANCH  14  15
BRANCH  14  17
ATOM     17  C   UNL     1      -6.079  -2.940  -2.711  0.00  0.00    +0.000 C 
BRANCH  17  18
ATOM     18  C   UNL     1      -4.860  -2.194  -3.175  0.00  0.00    +0.000 C 
BRANCH  18  20
ATOM     19  C   UNL     1      -3.898  -1.328  -1.038  0.00  0.00    +0.000 C 
ATOM     20  C   UNL     1      -4.627  -0.963  -2.335  0.00  0.00    +0.000 C 
ENDBRANCH  18  20
ENDBRANCH  17  18
ENDBRANCH  14  17
ENDBRANCH  13  14
ENDBRANCH   1  13
TORSDOF 9
ENDMDL
