REMARK  Name = ox1_esm1_f8_ligand
REMARK  5 active torsions:
REMARK  status: ('A' for Active; 'I' for Inactive)
REMARK    1  A    between atoms: C_1  and  O_2
REMARK    2  A    between atoms: O_2  and  C_3
REMARK    3  A    between atoms: C_6  and  C_7
REMARK    4  A    between atoms: C_7  and  C_9
REMARK    5  A    between atoms: C_15  and  O_16
REMARK                            x       y       z     vdW  Elec       q    Type
REMARK                         _______ _______ _______ _____ _____    ______ ____
ROOT
ATOM      1  C   UNL     1       2.839  -0.221  -3.194  0.00  0.00    +0.000 A 
ATOM      2  C   UNL     1       2.844  -1.476  -2.585  0.00  0.00    +0.000 A 
ATOM      3  C   UNL     1       3.611  -1.698  -1.450  0.00  0.00    +0.000 A 
ATOM      4  C   UNL     1       4.371  -0.682  -0.897  0.00  0.00    +0.000 A 
ATOM      5  C   UNL     1       4.378   0.588  -1.510  0.00  0.00    +0.000 A 
ATOM      6  C   UNL     1       3.608   0.797  -2.653  0.00  0.00    +0.000 A 
ENDROOT
BRANCH   1   8
ATOM      7  C   UNL     1       2.017   1.208  -4.984  0.00  0.00    +0.000 C 
ATOM      8  O   UNL     1       2.062  -0.049  -4.302  0.00  0.00    +0.000 OA
ENDBRANCH   1   8
BRANCH   4   9
ATOM      9  C   UNL     1       5.184  -0.927   0.338  0.00  0.00    +0.000 C 
ATOM     10  O   UNL     1       5.979  -0.070   0.715  0.00  0.00    +0.000 OA
BRANCH   9  11
ATOM     11  C   UNL     1       5.057  -2.206   1.098  0.00  0.00    +0.000 A 
ATOM     12  C   UNL     1       6.127  -2.998   1.307  0.00  0.00    +0.000 A 
ATOM     13  C   UNL     1       6.092  -4.176   2.031  0.00  0.00    +0.000 A 
ATOM     14  C   UNL     1       4.890  -4.600   2.544  0.00  0.00    +0.000 A 
ATOM     15  C   UNL     1       3.760  -3.821   2.339  0.00  0.00    +0.000 A 
ATOM     16  C   UNL     1       3.854  -2.633   1.614  0.00  0.00    +0.000 A 
ENDBRANCH   9  11
ENDBRANCH   4   9
BRANCH   5  17
ATOM     17  O   UNL     1       5.141   1.586  -0.977  0.00  0.00    +0.000 OA
ATOM     18  H   UNL     1       5.152   2.481  -1.401  0.00  0.00    +0.000 HD
ENDBRANCH   5  17
TORSDOF 4
