REMARK  Name = /Users/cafierom/python_mac/peptidebuilder/runs/oxybenzone/dock/ox1_esm1_f8/ox1_esm1_f8_protein.pdb
REMARK                            x       y       z     vdW  Elec       q    Type
REMARK                         _______ _______ _______ _____ _____    ______ ____
ATOM      1 N    PHE A   1      10.256  -3.773  -1.255  0.00  0.00    +0.000 NA
ATOM      2 CA   PHE A   1       9.385  -2.861  -0.512  0.00  0.00    +0.000 C 
ATOM      3 C    PHE A   1       9.704  -2.920   0.978  0.00  0.00    +0.000 C 
ATOM      4 O    PHE A   1       9.973  -4.004   1.497  0.00  0.00    +0.000 OA
ATOM      5 CB   PHE A   1       7.925  -3.252  -0.682  0.00  0.00    +0.000 C 
ATOM      6 CG   PHE A   1       7.341  -3.098  -2.051  0.00  0.00    +0.000 A 
ATOM      7 CD1  PHE A   1       7.781  -2.122  -2.919  0.00  0.00    +0.000 A 
ATOM      8 CD2  PHE A   1       6.309  -3.935  -2.452  0.00  0.00    +0.000 A 
ATOM      9 CE1  PHE A   1       7.213  -1.987  -4.175  0.00  0.00    +0.000 A 
ATOM     10 CE2  PHE A   1       5.736  -3.815  -3.703  0.00  0.00    +0.000 A 
ATOM     11 CZ   PHE A   1       6.195  -2.835  -4.569  0.00  0.00    +0.000 A 
ATOM     12 N    PRO A   2       9.649  -1.794   1.697  0.00  0.00    +0.000 N 
ATOM     13 CA   PRO A   2       9.828  -1.792   3.154  0.00  0.00    +0.000 C 
ATOM     14 C    PRO A   2       8.571  -2.270   3.875  0.00  0.00    +0.000 C 
ATOM     15 O    PRO A   2       7.510  -2.282   3.336  0.00  0.00    +0.000 OA
ATOM     16 CB   PRO A   2      10.094  -0.318   3.476  0.00  0.00    +0.000 C 
ATOM     17 CG   PRO A   2       9.343   0.415   2.411  0.00  0.00    +0.000 C 
ATOM     18 CD   PRO A   2       9.455  -0.440   1.170  0.00  0.00    +0.000 C 
ATOM     19 N    ARG A   3       8.675  -2.606   5.127  0.00  0.00    +0.000 N 
ATOM     20 CA   ARG A   3       7.529  -3.032   5.923  0.00  0.00    +0.000 C 
ATOM     21 C    ARG A   3       6.462  -1.939   5.935  0.00  0.00    +0.000 C 
ATOM     22 O    ARG A   3       6.771  -0.759   6.061  0.00  0.00    +0.000 OA
ATOM     23 CB   ARG A   3       7.980  -3.342   7.346  0.00  0.00    +0.000 C 
ATOM     24 CG   ARG A   3       6.885  -3.886   8.235  0.00  0.00    +0.000 C 
ATOM     25 CD   ARG A   3       7.433  -4.275   9.601  0.00  0.00    +0.000 C 
ATOM     26 NE   ARG A   3       6.396  -4.848  10.448  0.00  0.00    +0.000 NA
ATOM     27 CZ   ARG A   3       6.604  -5.340  11.663  0.00  0.00    +0.000 C 
ATOM     28 NH1  ARG A   3       7.814  -5.329  12.193  0.00  0.00    +0.000 N 
ATOM     29 NH2  ARG A   3       5.597  -5.852  12.348  0.00  0.00    +0.000 N 
ATOM     30 N    LEU A   4       5.209  -2.336   5.837  0.00  0.00    +0.000 N 
ATOM     31 CA   LEU A   4       4.093  -1.392   5.890  0.00  0.00    +0.000 C 
ATOM     32 C    LEU A   4       4.068  -0.712   7.254  0.00  0.00    +0.000 C 
ATOM     33 O    LEU A   4       3.933  -1.373   8.276  0.00  0.00    +0.000 OA
ATOM     34 CB   LEU A   4       2.780  -2.125   5.639  0.00  0.00    +0.000 C 
ATOM     35 CG   LEU A   4       1.503  -1.294   5.675  0.00  0.00    +0.000 C 
ATOM     36 CD1  LEU A   4       1.536  -0.227   4.588  0.00  0.00    +0.000 C 
ATOM     37 CD2  LEU A   4       0.289  -2.199   5.502  0.00  0.00    +0.000 C 
ATOM     38 N    LYS A   5       4.202   0.608   7.255  0.00  0.00    +0.000 N 
ATOM     39 CA   LYS A   5       4.270   1.371   8.497  0.00  0.00    +0.000 C 
ATOM     40 C    LYS A   5       3.379   2.605   8.494  0.00  0.00    +0.000 C 
ATOM     41 O    LYS A   5       2.889   3.021   9.542  0.00  0.00    +0.000 OA
ATOM     42 CB   LYS A   5       5.703   1.832   8.762  0.00  0.00    +0.000 C 
ATOM     43 CG   LYS A   5       6.684   0.715   9.030  0.00  0.00    +0.000 C 
ATOM     44 CD   LYS A   5       8.106   1.234   9.121  0.00  0.00    +0.000 C 
ATOM     45 CE   LYS A   5       8.301   2.183  10.286  0.00  0.00    +0.000 C 
ATOM     46 NZ   LYS A   5       9.728   2.566  10.440  0.00  0.00    +0.000 NA
ATOM     47 N    LEU A   6       3.182   3.214   7.326  0.00  0.00    +0.000 N 
ATOM     48 CA   LEU A   6       2.527   4.504   7.214  0.00  0.00    +0.000 C 
ATOM     49 C    LEU A   6       1.187   4.411   6.506  0.00  0.00    +0.000 C 
ATOM     50 O    LEU A   6       0.959   3.521   5.687  0.00  0.00    +0.000 OA
ATOM     51 CB   LEU A   6       3.426   5.486   6.451  0.00  0.00    +0.000 C 
ATOM     52 CG   LEU A   6       4.831   5.682   7.015  0.00  0.00    +0.000 C 
ATOM     53 CD1  LEU A   6       5.630   6.584   6.089  0.00  0.00    +0.000 C 
ATOM     54 CD2  LEU A   6       4.779   6.264   8.404  0.00  0.00    +0.000 C 
ATOM     55 N    LYS A   7       0.328   5.376   6.804  0.00  0.00    +0.000 N 
ATOM     56 CA   LYS A   7      -0.961   5.472   6.128  0.00  0.00    +0.000 C 
ATOM     57 C    LYS A   7      -0.773   5.583   4.618  0.00  0.00    +0.000 C 
ATOM     58 O    LYS A   7      -1.536   4.989   3.850  0.00  0.00    +0.000 OA
ATOM     59 CB   LYS A   7      -1.738   6.680   6.657  0.00  0.00    +0.000 C 
ATOM     60 CG   LYS A   7      -3.092   6.876   6.010  0.00  0.00    +0.000 C 
ATOM     61 CD   LYS A   7      -3.825   8.060   6.617  0.00  0.00    +0.000 C 
ATOM     62 CE   LYS A   7      -5.165   8.300   5.955  0.00  0.00    +0.000 C 
ATOM     63 NZ   LYS A   7      -5.877   9.456   6.561  0.00  0.00    +0.000 NA
ATOM     64 N    SER A   8       0.230   6.330   4.187  0.00  0.00    +0.000 N 
ATOM     65 CA   SER A   8       0.494   6.489   2.758  0.00  0.00    +0.000 C 
ATOM     66 C    SER A   8       0.827   5.158   2.090  0.00  0.00    +0.000 C 
ATOM     67 O    SER A   8       0.501   4.953   0.919  0.00  0.00    +0.000 OA
ATOM     68 CB   SER A   8       1.623   7.495   2.529  0.00  0.00    +0.000 C 
ATOM     69 OG   SER A   8       2.826   7.072   3.129  0.00  0.00    +0.000 OA
ATOM     70 N    ASP A   9       1.485   4.245   2.821  0.00  0.00    +0.000 N 
ATOM     71 CA   ASP A   9       1.777   2.919   2.285  0.00  0.00    +0.000 C 
ATOM     72 C    ASP A   9       0.483   2.159   2.022  0.00  0.00    +0.000 C 
ATOM     73 O    ASP A   9       0.305   1.546   0.966  0.00  0.00    +0.000 OA
ATOM     74 CB   ASP A   9       2.641   2.117   3.265  0.00  0.00    +0.000 C 
ATOM     75 CG   ASP A   9       4.018   2.698   3.467  0.00  0.00    +0.000 C 
ATOM     76 OD1  ASP A   9       4.587   3.251   2.506  0.00  0.00    +0.000 OA
ATOM     77 OD2  ASP A   9       4.534   2.588   4.597  0.00  0.00    +0.000 OA
ATOM     78 N    ALA A  10      -0.423   2.189   2.990  0.00  0.00    +0.000 N 
ATOM     79 CA   ALA A  10      -1.702   1.505   2.848  0.00  0.00    +0.000 C 
ATOM     80 C    ALA A  10      -2.510   2.102   1.706  0.00  0.00    +0.000 C 
ATOM     81 O    ALA A  10      -3.163   1.379   0.948  0.00  0.00    +0.000 OA
ATOM     82 CB   ALA A  10      -2.479   1.579   4.158  0.00  0.00    +0.000 C 
ATOM     83 N    GLU A  11      -2.479   3.421   1.583  0.00  0.00    +0.000 N 
ATOM     84 CA   GLU A  11      -3.201   4.101   0.514  0.00  0.00    +0.000 C 
ATOM     85 C    GLU A  11      -2.657   3.710  -0.857  0.00  0.00    +0.000 C 
ATOM     86 O    GLU A  11      -3.425   3.514  -1.805  0.00  0.00    +0.000 OA
ATOM     87 CB   GLU A  11      -3.125   5.615   0.712  0.00  0.00    +0.000 C 
ATOM     88 CG   GLU A  11      -3.901   6.100   1.927  0.00  0.00    +0.000 C 
ATOM     89 CD   GLU A  11      -3.676   7.565   2.233  0.00  0.00    +0.000 C 
ATOM     90 OE1  GLU A  11      -2.624   8.111   1.851  0.00  0.00    +0.000 OA
ATOM     91 OE2  GLU A  11      -4.556   8.171   2.873  0.00  0.00    +0.000 OA
ATOM     92 N    ALA A  12      -1.349   3.578  -0.975  0.00  0.00    +0.000 N 
ATOM     93 CA   ALA A  12      -0.733   3.170  -2.234  0.00  0.00    +0.000 C 
ATOM     94 C    ALA A  12      -1.154   1.757  -2.612  0.00  0.00    +0.000 C 
ATOM     95 O    ALA A  12      -1.450   1.476  -3.778  0.00  0.00    +0.000 OA
ATOM     96 CB   ALA A  12       0.786   3.271  -2.129  0.00  0.00    +0.000 C 
ATOM     97 N    ILE A  13      -1.179   0.858  -1.637  0.00  0.00    +0.000 N 
ATOM     98 CA   ILE A  13      -1.601  -0.516  -1.885  0.00  0.00    +0.000 C 
ATOM     99 C    ILE A  13      -3.058  -0.543  -2.327  0.00  0.00    +0.000 C 
ATOM    100 O    ILE A  13      -3.413  -1.228  -3.293  0.00  0.00    +0.000 OA
ATOM    101 CB   ILE A  13      -1.394  -1.386  -0.630  0.00  0.00    +0.000 C 
ATOM    102 CG1  ILE A  13       0.104  -1.521  -0.328  0.00  0.00    +0.000 C 
ATOM    103 CG2  ILE A  13      -2.038  -2.755  -0.815  0.00  0.00    +0.000 C 
ATOM    104 CD1  ILE A  13       0.401  -2.077   1.053  0.00  0.00    +0.000 C 
ATOM    105 N    ALA A  14      -3.912   0.191  -1.631  0.00  0.00    +0.000 N 
ATOM    106 CA   ALA A  14      -5.327   0.235  -1.978  0.00  0.00    +0.000 C 
ATOM    107 C    ALA A  14      -5.526   0.785  -3.382  0.00  0.00    +0.000 C 
ATOM    108 O    ALA A  14      -6.353   0.279  -4.146  0.00  0.00    +0.000 OA
ATOM    109 CB   ALA A  14      -6.097   1.073  -0.963  0.00  0.00    +0.000 C 
ATOM    110 N    SER A  15      -4.766   1.805  -3.743  0.00  0.00    +0.000 N 
ATOM    111 CA   SER A  15      -4.855   2.388  -5.078  0.00  0.00    +0.000 C 
ATOM    112 C    SER A  15      -4.475   1.379  -6.150  0.00  0.00    +0.000 C 
ATOM    113 O    SER A  15      -5.099   1.321  -7.212  0.00  0.00    +0.000 OA
ATOM    114 CB   SER A  15      -3.962   3.623  -5.187  0.00  0.00    +0.000 C 
ATOM    115 OG   SER A  15      -4.434   4.660  -4.349  0.00  0.00    +0.000 OA
ATOM    116 N    ARG A  16      -3.443   0.581  -5.887  0.00  0.00    +0.000 N 
ATOM    117 CA   ARG A  16      -3.043  -0.447  -6.840  0.00  0.00    +0.000 C 
ATOM    118 C    ARG A  16      -4.118  -1.516  -6.983  0.00  0.00    +0.000 C 
ATOM    119 O    ARG A  16      -4.401  -1.973  -8.096  0.00  0.00    +0.000 OA
ATOM    120 CB   ARG A  16      -1.712  -1.069  -6.430  0.00  0.00    +0.000 C 
ATOM    121 CG   ARG A  16      -1.294  -2.281  -7.250  0.00  0.00    +0.000 C 
ATOM    122 CD   ARG A  16      -1.151  -1.956  -8.727  0.00  0.00    +0.000 C 
ATOM    123 NE   ARG A  16      -0.909  -3.163  -9.526  0.00  0.00    +0.000 NA
ATOM    124 CZ   ARG A  16      -1.838  -3.980  -9.979  0.00  0.00    +0.000 C 
ATOM    125 NH1  ARG A  16      -3.112  -3.747  -9.731  0.00  0.00    +0.000 N 
ATOM    126 NH2  ARG A  16      -1.509  -5.046 -10.694  0.00  0.00    +0.000 N 
ATOM    127 N    LEU A  17      -4.716  -1.918  -5.877  0.00  0.00    +0.000 N 
ATOM    128 CA   LEU A  17      -5.782  -2.907  -5.921  0.00  0.00    +0.000 C 
ATOM    129 C    LEU A  17      -6.977  -2.397  -6.714  0.00  0.00    +0.000 C 
ATOM    130 O    LEU A  17      -7.677  -3.181  -7.356  0.00  0.00    +0.000 OA
ATOM    131 CB   LEU A  17      -6.209  -3.300  -4.506  0.00  0.00    +0.000 C 
ATOM    132 CG   LEU A  17      -5.161  -4.085  -3.712  0.00  0.00    +0.000 C 
ATOM    133 CD1  LEU A  17      -5.630  -4.291  -2.280  0.00  0.00    +0.000 C 
ATOM    134 CD2  LEU A  17      -4.879  -5.431  -4.378  0.00  0.00    +0.000 C 
ATOM    135 N    ASP A  18      -7.202  -1.083  -6.680  0.00  0.00    +0.000 N 
ATOM    136 CA   ASP A  18      -8.267  -0.460  -7.456  0.00  0.00    +0.000 C 
ATOM    137 C    ASP A  18      -7.875  -0.240  -8.916  0.00  0.00    +0.000 C 
ATOM    138 O    ASP A  18      -8.696   0.233  -9.703  0.00  0.00    +0.000 OA
ATOM    139 CB   ASP A  18      -8.667   0.878  -6.830  0.00  0.00    +0.000 C 
ATOM    140 CG   ASP A  18      -9.365   0.736  -5.495  0.00  0.00    +0.000 C 
ATOM    141 OD1  ASP A  18      -9.864  -0.368  -5.183  0.00  0.00    +0.000 OA
ATOM    142 OD2  ASP A  18      -9.417   1.734  -4.749  0.00  0.00    +0.000 OA
ATOM    143 N    GLY A  19      -6.636  -0.548  -9.277  0.00  0.00    +0.000 N 
ATOM    144 CA   GLY A  19      -6.170  -0.434 -10.647  0.00  0.00    +0.000 C 
ATOM    145 C    GLY A  19      -5.752   0.956 -11.074  0.00  0.00    +0.000 C 
ATOM    146 O    GLY A  19      -5.579   1.205 -12.268  0.00  0.00    +0.000 OA
ATOM    147 N    SER A  20      -5.566   1.869 -10.130  0.00  0.00    +0.000 N 
ATOM    148 CA   SER A  20      -5.280   3.261 -10.453  0.00  0.00    +0.000 C 
ATOM    149 C    SER A  20      -3.794   3.592 -10.509  0.00  0.00    +0.000 C 
ATOM    150 O    SER A  20      -3.430   4.669 -10.985  0.00  0.00    +0.000 OA
ATOM    151 CB   SER A  20      -5.973   4.188  -9.455  0.00  0.00    +0.000 C 
ATOM    152 OG   SER A  20      -5.481   3.998  -8.149  0.00  0.00    +0.000 OA
ATOM    153 N    THR A  21      -2.929   2.693 -10.034  0.00  0.00    +0.000 N 
ATOM    154 CA   THR A  21      -1.501   2.966 -10.045  0.00  0.00    +0.000 C 
ATOM    155 C    THR A  21      -0.701   1.666 -10.020  0.00  0.00    +0.000 C 
ATOM    156 O    THR A  21      -1.260   0.582  -9.830  0.00  0.00    +0.000 OA
ATOM    157 CB   THR A  21      -1.091   3.875  -8.871  0.00  0.00    +0.000 C 
ATOM    158 OG1  THR A  21       0.223   4.385  -9.076  0.00  0.00    +0.000 OA
ATOM    159 CG2  THR A  21      -1.144   3.126  -7.543  0.00  0.00    +0.000 C 
ATOM    160 N    ALA A  22       0.611   1.782 -10.208  0.00  0.00    +0.000 N 
ATOM    161 CA   ALA A  22       1.519   0.647 -10.181  0.00  0.00    +0.000 C 
ATOM    162 C    ALA A  22       1.943   0.316  -8.753  0.00  0.00    +0.000 C 
ATOM    163 O    ALA A  22       1.647   1.043  -7.811  0.00  0.00    +0.000 OA
ATOM    164 CB   ALA A  22       2.744   0.948 -11.038  0.00  0.00    +0.000 C 
ATOM    165 N    TRP A  23       2.673  -0.805  -8.602  0.00  0.00    +0.000 N 
ATOM    166 CA   TRP A  23       3.152  -1.255  -7.300  0.00  0.00    +0.000 C 
ATOM    167 C    TRP A  23       4.443  -0.540  -6.874  0.00  0.00    +0.000 C 
ATOM    168 O    TRP A  23       5.357  -1.148  -6.324  0.00  0.00    +0.000 OA
ATOM    169 CB   TRP A  23       3.365  -2.768  -7.310  0.00  0.00    +0.000 C 
ATOM    170 CG   TRP A  23       2.087  -3.552  -7.299  0.00  0.00    +0.000 C 
ATOM    171 CD1  TRP A  23       1.406  -4.030  -8.373  0.00  0.00    +0.000 C 
ATOM    172 CD2  TRP A  23       1.326  -3.941  -6.150  0.00  0.00    +0.000 C 
ATOM    173 NE1  TRP A  23       0.272  -4.694  -7.964  0.00  0.00    +0.000 NA
ATOM    174 CE2  TRP A  23       0.205  -4.661  -6.601  0.00  0.00    +0.000 C 
ATOM    175 CE3  TRP A  23       1.498  -3.752  -4.770  0.00  0.00    +0.000 C 
ATOM    176 CZ2  TRP A  23      -0.743  -5.194  -5.728  0.00  0.00    +0.000 C 
ATOM    177 CZ3  TRP A  23       0.552  -4.288  -3.901  0.00  0.00    +0.000 C 
ATOM    178 CH2  TRP A  23      -0.550  -4.998  -4.385  0.00  0.00    +0.000 C 
ATOM    179 N    THR A  24       4.491   0.773  -7.131  0.00  0.00    +0.000 N 
ATOM    180 CA   THR A  24       5.608   1.613  -6.721  0.00  0.00    +0.000 C 
ATOM    181 C    THR A  24       5.079   2.974  -6.294  0.00  0.00    +0.000 C 
ATOM    182 O    THR A  24       4.033   3.417  -6.763  0.00  0.00    +0.000 OA
ATOM    183 CB   THR A  24       6.626   1.810  -7.853  0.00  0.00    +0.000 C 
ATOM    184 OG1  THR A  24       5.960   2.342  -8.999  0.00  0.00    +0.000 OA
ATOM    185 CG2  THR A  24       7.299   0.498  -8.232  0.00  0.00    +0.000 C 
ATOM    186 N    ASP A  25       5.843   3.631  -5.424  0.00  0.00    +0.000 N 
ATOM    187 CA   ASP A  25       5.487   4.976  -4.979  0.00  0.00    +0.000 C 
ATOM    188 C    ASP A  25       5.815   6.008  -6.049  0.00  0.00    +0.000 C 
ATOM    189 O    ASP A  25       6.664   5.776  -6.903  0.00  0.00    +0.000 OA
ATOM    190 CB   ASP A  25       6.237   5.329  -3.688  0.00  0.00    +0.000 C 
ATOM    191 CG   ASP A  25       5.810   4.486  -2.498  0.00  0.00    +0.000 C 
ATOM    192 OD1  ASP A  25       4.663   4.007  -2.474  0.00  0.00    +0.000 OA
ATOM    193 OD2  ASP A  25       6.634   4.337  -1.578  0.00  0.00    +0.000 OA
ATOM    194  H   PHE A   1      10.032  -3.723  -2.249  0.00  0.00    +0.000 HD
ATOM    195  H   PHE A   1      10.113  -4.726  -0.922  0.00  0.00    +0.000 HD
ATOM    196  H   ARG A   3       9.561  -2.572   5.554  0.00  0.00    +0.000 HD
ATOM    197  H   ARG A   3       8.569  -4.949  11.688  0.00  0.00    +0.000 HD
ATOM    198  H   ARG A   3       7.961  -5.701  13.093  0.00  0.00    +0.000 HD
ATOM    199  H   ARG A   3       4.693  -5.864  11.959  0.00  0.00    +0.000 HD
ATOM    200  H   ARG A   3       5.751  -6.222  13.247  0.00  0.00    +0.000 HD
ATOM    201  H   LEU A   4       5.019  -3.295   5.725  0.00  0.00    +0.000 HD
ATOM    202  H   LYS A   5       4.257   1.085   6.396  0.00  0.00    +0.000 HD
ATOM    203  H   LYS A   5      10.286   1.732  10.621  0.00  0.00    +0.000 HD
ATOM    204  H   LYS A   5       9.823   3.215  11.221  0.00  0.00    +0.000 HD
ATOM    205  H   LEU A   6       3.494   2.770   6.504  0.00  0.00    +0.000 HD
ATOM    206  H   LYS A   7       0.564   6.039   7.493  0.00  0.00    +0.000 HD
ATOM    207  H   LYS A   7      -5.319  10.301   6.440  0.00  0.00    +0.000 HD
ATOM    208  H   LYS A   7      -6.020   9.283   7.556  0.00  0.00    +0.000 HD
ATOM    209  H   SER A   8       0.809   6.787   4.840  0.00  0.00    +0.000 HD
ATOM    210  H   SER A   8       2.698   6.989   4.087  0.00  0.00    +0.000 HD
ATOM    211  H   ASP A   9       1.775   4.473   3.734  0.00  0.00    +0.000 HD
ATOM    212  H   ASP A   9       4.064   2.163   5.287  0.00  0.00    +0.000 HD
ATOM    213  H   ALA A  10      -0.228   2.682   3.819  0.00  0.00    +0.000 HD
ATOM    214  H   GLU A  11      -1.958   3.953   2.227  0.00  0.00    +0.000 HD
ATOM    215  H   GLU A  11      -5.333   7.722   3.141  0.00  0.00    +0.000 HD
ATOM    216  H   ALA A  12      -0.775   3.759  -0.196  0.00  0.00    +0.000 HD
ATOM    217  H   ILE A  13      -0.908   1.123  -0.729  0.00  0.00    +0.000 HD
ATOM    218  H   ALA A  14      -3.585   0.717  -0.865  0.00  0.00    +0.000 HD
ATOM    219  H   SER A  15      -4.125   2.180  -3.096  0.00  0.00    +0.000 HD
ATOM    220  H   SER A  15      -5.332   4.909  -4.618  0.00  0.00    +0.000 HD
ATOM    221  H   ARG A  16      -2.946   0.686  -5.043  0.00  0.00    +0.000 HD
ATOM    222  H   ARG A  16      -3.801  -4.362 -10.073  0.00  0.00    +0.000 HD
ATOM    223  H   ARG A  16      -3.375  -2.958  -9.204  0.00  0.00    +0.000 HD
ATOM    224  H   ARG A  16      -2.211  -5.650 -11.028  0.00  0.00    +0.000 HD
ATOM    225  H   ARG A  16      -0.563  -5.234 -10.891  0.00  0.00    +0.000 HD
ATOM    226  H   LEU A  17      -4.437  -1.543  -5.010  0.00  0.00    +0.000 HD
ATOM    227  H   ASP A  18      -6.631  -0.516  -6.113  0.00  0.00    +0.000 HD
ATOM    228  H   ASP A  18      -9.030   2.543  -5.021  0.00  0.00    +0.000 HD
ATOM    229  H   GLY A  19      -6.008  -0.866  -8.589  0.00  0.00    +0.000 HD
ATOM    230  H   SER A  20      -5.623   1.599  -9.185  0.00  0.00    +0.000 HD
ATOM    231  H   SER A  20      -5.649   3.084  -7.870  0.00  0.00    +0.000 HD
ATOM    232  H   THR A  21      -3.260   1.839  -9.674  0.00  0.00    +0.000 HD
ATOM    233  H   THR A  21       0.854   3.649  -9.112  0.00  0.00    +0.000 HD
ATOM    234  H   ALA A  22       0.984   2.678 -10.373  0.00  0.00    +0.000 HD
ATOM    235  H   TRP A  23       2.891  -1.340  -9.399  0.00  0.00    +0.000 HD
ATOM    236  H   THR A  24       3.741   1.187  -7.616  0.00  0.00    +0.000 HD
ATOM    237  H   THR A  24       5.281   1.717  -9.298  0.00  0.00    +0.000 HD
ATOM    238  H   ASP A  25       6.659   3.205  -5.076  0.00  0.00    +0.000 HD
ATOM    239  H   ASP A  25       7.487   4.720  -1.646  0.00  0.00    +0.000 HD
TER 
