MODEL 1
REMARK VINA RESULT:      -7.2      0.000      0.000
REMARK  Name = ox1_esm1_f8_ligand
REMARK  5 active torsions:
REMARK  status: ('A' for Active; 'I' for Inactive)
REMARK    1  A    between atoms: C_1  and  O_2
REMARK    2  A    between atoms: O_2  and  C_3
REMARK    3  A    between atoms: C_6  and  C_7
REMARK    4  A    between atoms: C_7  and  C_9
REMARK    5  A    between atoms: C_15  and  O_16
REMARK                            x       y       z     vdW  Elec       q    Type
REMARK                         _______ _______ _______ _____ _____    ______ ____
ROOT
ATOM      1  C   UNL     1       4.195  -2.272   1.793  0.00  0.00    +0.000 A 
ATOM      2  C   UNL     1       4.029  -2.890   0.554  0.00  0.00    +0.000 A 
ATOM      3  C   UNL     1       4.176  -2.159  -0.616  0.00  0.00    +0.000 A 
ATOM      4  C   UNL     1       4.499  -0.814  -0.576  0.00  0.00    +0.000 A 
ATOM      5  C   UNL     1       4.662  -0.179   0.672  0.00  0.00    +0.000 A 
ATOM      6  C   UNL     1       4.506  -0.923   1.840  0.00  0.00    +0.000 A 
ENDROOT
BRANCH   1   8
ATOM      7  C   UNL     1       4.207  -4.456   2.866  0.00  0.00    +0.000 C 
ATOM      8  O   UNL     1       4.050  -3.035   2.915  0.00  0.00    +0.000 OA
ENDBRANCH   1   8
BRANCH   4   9
ATOM      9  C   UNL     1       4.671  -0.036  -1.846  0.00  0.00    +0.000 C 
ATOM     10  O   UNL     1       5.744   0.517  -2.073  0.00  0.00    +0.000 OA
BRANCH   9  11
ATOM     11  C   UNL     1       3.548   0.096  -2.822  0.00  0.00    +0.000 A 
ATOM     12  C   UNL     1       2.610  -0.864  -2.933  0.00  0.00    +0.000 A 
ATOM     13  C   UNL     1       1.524  -0.794  -3.788  0.00  0.00    +0.000 A 
ATOM     14  C   UNL     1       1.401   0.300  -4.609  0.00  0.00    +0.000 A 
ATOM     15  C   UNL     1       2.354   1.306  -4.536  0.00  0.00    +0.000 A 
ATOM     16  C   UNL     1       3.421   1.192  -3.646  0.00  0.00    +0.000 A 
ENDBRANCH   9  11
ENDBRANCH   4   9
BRANCH   5  17
ATOM     17  O   UNL     1       4.963   1.152   0.714  0.00  0.00    +0.000 OA
ATOM     18  H   UNL     1       5.214   1.629  -0.117  0.00  0.00    +0.000 HD
ENDBRANCH   5  17
TORSDOF 4
ENDMDL
MODEL 2
REMARK VINA RESULT:      -6.8      2.529      3.826
REMARK  Name = ox1_esm1_f8_ligand
REMARK  5 active torsions:
REMARK  status: ('A' for Active; 'I' for Inactive)
REMARK    1  A    between atoms: C_1  and  O_2
REMARK    2  A    between atoms: O_2  and  C_3
REMARK    3  A    between atoms: C_6  and  C_7
REMARK    4  A    between atoms: C_7  and  C_9
REMARK    5  A    between atoms: C_15  and  O_16
REMARK                            x       y       z     vdW  Elec       q    Type
REMARK                         _______ _______ _______ _____ _____    ______ ____
ROOT
ATOM      1  C   UNL     1       3.668  -5.965  -0.209  0.00  0.00    +0.000 A 
ATOM      2  C   UNL     1       2.921  -5.113  -1.023  0.00  0.00    +0.000 A 
ATOM      3  C   UNL     1       3.023  -3.737  -0.874  0.00  0.00    +0.000 A 
ATOM      4  C   UNL     1       3.871  -3.187   0.072  0.00  0.00    +0.000 A 
ATOM      5  C   UNL     1       4.625  -4.040   0.904  0.00  0.00    +0.000 A 
ATOM      6  C   UNL     1       4.509  -5.421   0.748  0.00  0.00    +0.000 A 
ENDROOT
BRANCH   1   8
ATOM      7  C   UNL     1       4.181  -7.963  -1.500  0.00  0.00    +0.000 C 
ATOM      8  O   UNL     1       3.541  -7.310  -0.400  0.00  0.00    +0.000 OA
ENDBRANCH   1   8
BRANCH   4   9
ATOM      9  C   UNL     1       3.987  -1.700   0.215  0.00  0.00    +0.000 C 
ATOM     10  O   UNL     1       3.687  -1.173   1.284  0.00  0.00    +0.000 OA
BRANCH   9  11
ATOM     11  C   UNL     1       4.436  -0.852  -0.929  0.00  0.00    +0.000 A 
ATOM     12  C   UNL     1       3.765  -0.850  -2.097  0.00  0.00    +0.000 A 
ATOM     13  C   UNL     1       4.101  -0.065  -3.185  0.00  0.00    +0.000 A 
ATOM     14  C   UNL     1       5.210   0.741  -3.100  0.00  0.00    +0.000 A 
ATOM     15  C   UNL     1       5.938   0.759  -1.919  0.00  0.00    +0.000 A 
ATOM     16  C   UNL     1       5.547  -0.042  -0.846  0.00  0.00    +0.000 A 
ENDBRANCH   9  11
ENDBRANCH   4   9
BRANCH   5  17
ATOM     17  O   UNL     1       5.448  -3.500   1.849  0.00  0.00    +0.000 OA
ATOM     18  H   UNL     1       5.097  -2.828   2.486  0.00  0.00    +0.000 HD
ENDBRANCH   5  17
TORSDOF 4
ENDMDL
MODEL 3
REMARK VINA RESULT:      -6.8      2.517      3.867
REMARK  Name = ox1_esm1_f8_ligand
REMARK  5 active torsions:
REMARK  status: ('A' for Active; 'I' for Inactive)
REMARK    1  A    between atoms: C_1  and  O_2
REMARK    2  A    between atoms: O_2  and  C_3
REMARK    3  A    between atoms: C_6  and  C_7
REMARK    4  A    between atoms: C_7  and  C_9
REMARK    5  A    between atoms: C_15  and  O_16
REMARK                            x       y       z     vdW  Elec       q    Type
REMARK                         _______ _______ _______ _____ _____    ______ ____
ROOT
ATOM      1  C   UNL     1       3.667  -5.946  -0.196  0.00  0.00    +0.000 A 
ATOM      2  C   UNL     1       2.912  -5.100  -1.009  0.00  0.00    +0.000 A 
ATOM      3  C   UNL     1       3.013  -3.723  -0.867  0.00  0.00    +0.000 A 
ATOM      4  C   UNL     1       3.868  -3.167   0.069  0.00  0.00    +0.000 A 
ATOM      5  C   UNL     1       4.629  -4.014   0.900  0.00  0.00    +0.000 A 
ATOM      6  C   UNL     1       4.515  -5.395   0.751  0.00  0.00    +0.000 A 
ENDROOT
BRANCH   1   8
ATOM      7  C   UNL     1       4.351  -7.986  -1.333  0.00  0.00    +0.000 C 
ATOM      8  O   UNL     1       3.541  -7.292  -0.380  0.00  0.00    +0.000 OA
ENDBRANCH   1   8
BRANCH   4   9
ATOM      9  C   UNL     1       3.981  -1.678   0.204  0.00  0.00    +0.000 C 
ATOM     10  O   UNL     1       3.709  -1.149   1.278  0.00  0.00    +0.000 OA
BRANCH   9  11
ATOM     11  C   UNL     1       4.396  -0.833  -0.955  0.00  0.00    +0.000 A 
ATOM     12  C   UNL     1       5.474  -0.028  -0.875  0.00  0.00    +0.000 A 
ATOM     13  C   UNL     1       5.938   0.754  -1.918  0.00  0.00    +0.000 A 
ATOM     14  C   UNL     1       5.245   0.752  -3.104  0.00  0.00    +0.000 A 
ATOM     15  C   UNL     1       4.120  -0.052  -3.223  0.00  0.00    +0.000 A 
ATOM     16  C   UNL     1       3.704  -0.834  -2.145  0.00  0.00    +0.000 A 
ENDBRANCH   9  11
ENDBRANCH   4   9
BRANCH   5  17
ATOM     17  O   UNL     1       5.459  -3.468   1.835  0.00  0.00    +0.000 OA
ATOM     18  H   UNL     1       5.087  -3.124   2.687  0.00  0.00    +0.000 HD
ENDBRANCH   5  17
TORSDOF 4
ENDMDL
MODEL 4
REMARK VINA RESULT:      -6.7      2.095      5.491
REMARK  Name = ox1_esm1_f8_ligand
REMARK  5 active torsions:
REMARK  status: ('A' for Active; 'I' for Inactive)
REMARK    1  A    between atoms: C_1  and  O_2
REMARK    2  A    between atoms: O_2  and  C_3
REMARK    3  A    between atoms: C_6  and  C_7
REMARK    4  A    between atoms: C_7  and  C_9
REMARK    5  A    between atoms: C_15  and  O_16
REMARK                            x       y       z     vdW  Elec       q    Type
REMARK                         _______ _______ _______ _____ _____    ______ ____
ROOT
ATOM      1  C   UNL     1       5.969   0.778  -2.221  0.00  0.00    +0.000 A 
ATOM      2  C   UNL     1       4.859   0.047  -2.645  0.00  0.00    +0.000 A 
ATOM      3  C   UNL     1       4.225  -0.827  -1.774  0.00  0.00    +0.000 A 
ATOM      4  C   UNL     1       4.670  -0.979  -0.472  0.00  0.00    +0.000 A 
ATOM      5  C   UNL     1       5.796  -0.250  -0.037  0.00  0.00    +0.000 A 
ATOM      6  C   UNL     1       6.428   0.620  -0.923  0.00  0.00    +0.000 A 
ENDROOT
BRANCH   1   8
ATOM      7  C   UNL     1       7.960   1.579  -3.369  0.00  0.00    +0.000 C 
ATOM      8  O   UNL     1       6.553   1.631  -3.112  0.00  0.00    +0.000 OA
ENDBRANCH   1   8
BRANCH   4   9
ATOM      9  C   UNL     1       3.969  -1.914   0.467  0.00  0.00    +0.000 C 
ATOM     10  O   UNL     1       3.486  -1.472   1.506  0.00  0.00    +0.000 OA
BRANCH   9  11
ATOM     11  C   UNL     1       3.872  -3.373   0.166  0.00  0.00    +0.000 A 
ATOM     12  C   UNL     1       3.003  -3.835  -0.754  0.00  0.00    +0.000 A 
ATOM     13  C   UNL     1       2.884  -5.167  -1.111  0.00  0.00    +0.000 A 
ATOM     14  C   UNL     1       3.666  -6.095  -0.468  0.00  0.00    +0.000 A 
ATOM     15  C   UNL     1       4.565  -5.662   0.498  0.00  0.00    +0.000 A 
ATOM     16  C   UNL     1       4.656  -4.305   0.808  0.00  0.00    +0.000 A 
ENDBRANCH   9  11
ENDBRANCH   4   9
BRANCH   5  17
ATOM     17  O   UNL     1       6.248  -0.413   1.240  0.00  0.00    +0.000 OA
ATOM     18  H   UNL     1       5.614  -0.362   2.000  0.00  0.00    +0.000 HD
ENDBRANCH   5  17
TORSDOF 4
ENDMDL
MODEL 5
REMARK VINA RESULT:      -6.7      1.481      2.363
REMARK  Name = ox1_esm1_f8_ligand
REMARK  5 active torsions:
REMARK  status: ('A' for Active; 'I' for Inactive)
REMARK    1  A    between atoms: C_1  and  O_2
REMARK    2  A    between atoms: O_2  and  C_3
REMARK    3  A    between atoms: C_6  and  C_7
REMARK    4  A    between atoms: C_7  and  C_9
REMARK    5  A    between atoms: C_15  and  O_16
REMARK                            x       y       z     vdW  Elec       q    Type
REMARK                         _______ _______ _______ _____ _____    ______ ____
ROOT
ATOM      1  C   UNL     1       3.159  -4.620   1.878  0.00  0.00    +0.000 A 
ATOM      2  C   UNL     1       3.271  -4.580   0.488  0.00  0.00    +0.000 A 
ATOM      3  C   UNL     1       3.846  -3.482  -0.135  0.00  0.00    +0.000 A 
ATOM      4  C   UNL     1       4.327  -2.416   0.607  0.00  0.00    +0.000 A 
ATOM      5  C   UNL     1       4.211  -2.444   2.012  0.00  0.00    +0.000 A 
ATOM      6  C   UNL     1       3.626  -3.551   2.626  0.00  0.00    +0.000 A 
ENDROOT
BRANCH   1   8
ATOM      7  C   UNL     1       2.280  -5.759   3.840  0.00  0.00    +0.000 C 
ATOM      8  O   UNL     1       2.595  -5.725   2.445  0.00  0.00    +0.000 OA
ENDBRANCH   1   8
BRANCH   4   9
ATOM      9  C   UNL     1       4.960  -1.241  -0.074  0.00  0.00    +0.000 C 
ATOM     10  O   UNL     1       5.931  -0.696   0.445  0.00  0.00    +0.000 OA
BRANCH   9  11
ATOM     11  C   UNL     1       4.412  -0.712  -1.359  0.00  0.00    +0.000 A 
ATOM     12  C   UNL     1       3.223  -1.135  -1.832  0.00  0.00    +0.000 A 
ATOM     13  C   UNL     1       2.637  -0.664  -2.993  0.00  0.00    +0.000 A 
ATOM     14  C   UNL     1       3.314   0.266  -3.743  0.00  0.00    +0.000 A 
ATOM     15  C   UNL     1       4.548   0.718  -3.299  0.00  0.00    +0.000 A 
ATOM     16  C   UNL     1       5.087   0.221  -2.112  0.00  0.00    +0.000 A 
ENDBRANCH   9  11
ENDBRANCH   4   9
BRANCH   5  17
ATOM     17  O   UNL     1       4.668  -1.387   2.743  0.00  0.00    +0.000 OA
ATOM     18  H   UNL     1       4.332  -1.239   3.663  0.00  0.00    +0.000 HD
ENDBRANCH   5  17
TORSDOF 4
ENDMDL
MODEL 6
REMARK VINA RESULT:      -6.7      1.563      5.844
REMARK  Name = ox1_esm1_f8_ligand
REMARK  5 active torsions:
REMARK  status: ('A' for Active; 'I' for Inactive)
REMARK    1  A    between atoms: C_1  and  O_2
REMARK    2  A    between atoms: O_2  and  C_3
REMARK    3  A    between atoms: C_6  and  C_7
REMARK    4  A    between atoms: C_7  and  C_9
REMARK    5  A    between atoms: C_15  and  O_16
REMARK                            x       y       z     vdW  Elec       q    Type
REMARK                         _______ _______ _______ _____ _____    ______ ____
ROOT
ATOM      1  C   UNL     1       2.577  -0.146  -2.724  0.00  0.00    +0.000 A 
ATOM      2  C   UNL     1       2.897  -1.499  -2.609  0.00  0.00    +0.000 A 
ATOM      3  C   UNL     1       3.650  -1.949  -1.534  0.00  0.00    +0.000 A 
ATOM      4  C   UNL     1       4.086  -1.073  -0.555  0.00  0.00    +0.000 A 
ATOM      5  C   UNL     1       3.774   0.298  -0.667  0.00  0.00    +0.000 A 
ATOM      6  C   UNL     1       3.021   0.739  -1.754  0.00  0.00    +0.000 A 
ENDROOT
BRANCH   1   8
ATOM      7  C   UNL     1       2.171   1.413  -4.547  0.00  0.00    +0.000 C 
ATOM      8  O   UNL     1       1.826   0.247  -3.793  0.00  0.00    +0.000 OA
ENDBRANCH   1   8
BRANCH   4   9
ATOM      9  C   UNL     1       4.886  -1.571   0.610  0.00  0.00    +0.000 C 
ATOM     10  O   UNL     1       5.871  -0.937   0.979  0.00  0.00    +0.000 OA
BRANCH   9  11
ATOM     11  C   UNL     1       4.515  -2.837   1.309  0.00  0.00    +0.000 A 
ATOM     12  C   UNL     1       3.514  -2.865   2.210  0.00  0.00    +0.000 A 
ATOM     13  C   UNL     1       3.092  -4.006   2.868  0.00  0.00    +0.000 A 
ATOM     14  C   UNL     1       3.750  -5.188   2.628  0.00  0.00    +0.000 A 
ATOM     15  C   UNL     1       4.797  -5.200   1.717  0.00  0.00    +0.000 A 
ATOM     16  C   UNL     1       5.172  -4.023   1.069  0.00  0.00    +0.000 A 
ENDBRANCH   9  11
ENDBRANCH   4   9
BRANCH   5  17
ATOM     17  O   UNL     1       4.217   1.167   0.287  0.00  0.00    +0.000 OA
ATOM     18  H   UNL     1       3.957   2.122   0.248  0.00  0.00    +0.000 HD
ENDBRANCH   5  17
TORSDOF 4
ENDMDL
MODEL 7
REMARK VINA RESULT:      -6.4      1.341      5.945
REMARK  Name = ox1_esm1_f8_ligand
REMARK  5 active torsions:
REMARK  status: ('A' for Active; 'I' for Inactive)
REMARK    1  A    between atoms: C_1  and  O_2
REMARK    2  A    between atoms: O_2  and  C_3
REMARK    3  A    between atoms: C_6  and  C_7
REMARK    4  A    between atoms: C_7  and  C_9
REMARK    5  A    between atoms: C_15  and  O_16
REMARK                            x       y       z     vdW  Elec       q    Type
REMARK                         _______ _______ _______ _____ _____    ______ ____
ROOT
ATOM      1  C   UNL     1       4.061  -0.068  -2.464  0.00  0.00    +0.000 A 
ATOM      2  C   UNL     1       3.519  -1.320  -2.172  0.00  0.00    +0.000 A 
ATOM      3  C   UNL     1       3.626  -1.844  -0.891  0.00  0.00    +0.000 A 
ATOM      4  C   UNL     1       4.256  -1.134   0.116  0.00  0.00    +0.000 A 
ATOM      5  C   UNL     1       4.812   0.129  -0.172  0.00  0.00    +0.000 A 
ATOM      6  C   UNL     1       4.704   0.642  -1.463  0.00  0.00    +0.000 A 
ENDROOT
BRANCH   1   8
ATOM      7  C   UNL     1       2.681   0.960  -4.186  0.00  0.00    +0.000 C 
ATOM      8  O   UNL     1       3.923   0.409  -3.735  0.00  0.00    +0.000 OA
ENDBRANCH   1   8
BRANCH   4   9
ATOM      9  C   UNL     1       4.352  -1.702   1.500  0.00  0.00    +0.000 C 
ATOM     10  O   UNL     1       4.520  -0.943   2.451  0.00  0.00    +0.000 OA
BRANCH   9  11
ATOM     11  C   UNL     1       4.270  -3.175   1.732  0.00  0.00    +0.000 A 
ATOM     12  C   UNL     1       5.252  -3.998   1.315  0.00  0.00    +0.000 A 
ATOM     13  C   UNL     1       5.262  -5.365   1.526  0.00  0.00    +0.000 A 
ATOM     14  C   UNL     1       4.192  -5.942   2.166  0.00  0.00    +0.000 A 
ATOM     15  C   UNL     1       3.152  -5.131   2.599  0.00  0.00    +0.000 A 
ATOM     16  C   UNL     1       3.199  -3.755   2.374  0.00  0.00    +0.000 A 
ENDBRANCH   9  11
ENDBRANCH   4   9
BRANCH   5  17
ATOM     17  O   UNL     1       5.450   0.822   0.816  0.00  0.00    +0.000 OA
ATOM     18  H   UNL     1       6.249   0.436   1.255  0.00  0.00    +0.000 HD
ENDBRANCH   5  17
TORSDOF 4
ENDMDL
MODEL 8
REMARK VINA RESULT:      -6.2      2.936      5.625
REMARK  Name = ox1_esm1_f8_ligand
REMARK  5 active torsions:
REMARK  status: ('A' for Active; 'I' for Inactive)
REMARK    1  A    between atoms: C_1  and  O_2
REMARK    2  A    between atoms: O_2  and  C_3
REMARK    3  A    between atoms: C_6  and  C_7
REMARK    4  A    between atoms: C_7  and  C_9
REMARK    5  A    between atoms: C_15  and  O_16
REMARK                            x       y       z     vdW  Elec       q    Type
REMARK                         _______ _______ _______ _____ _____    ______ ____
ROOT
ATOM      1  C   UNL     1       4.592  -0.598  -1.326  0.00  0.00    +0.000 A 
ATOM      2  C   UNL     1       3.633  -1.366  -1.986  0.00  0.00    +0.000 A 
ATOM      3  C   UNL     1       3.180  -2.551  -1.424  0.00  0.00    +0.000 A 
ATOM      4  C   UNL     1       3.660  -2.985  -0.201  0.00  0.00    +0.000 A 
ATOM      5  C   UNL     1       4.636  -2.220   0.470  0.00  0.00    +0.000 A 
ATOM      6  C   UNL     1       5.087  -1.034  -0.107  0.00  0.00    +0.000 A 
ENDROOT
BRANCH   1   8
ATOM      7  C   UNL     1       4.830   0.779  -3.318  0.00  0.00    +0.000 C 
ATOM      8  O   UNL     1       4.999   0.564  -1.914  0.00  0.00    +0.000 OA
ENDBRANCH   1   8
BRANCH   4   9
ATOM      9  C   UNL     1       3.153  -4.259   0.406  0.00  0.00    +0.000 C 
ATOM     10  O   UNL     1       3.284  -4.445   1.613  0.00  0.00    +0.000 OA
BRANCH   9  11
ATOM     11  C   UNL     1       2.516  -5.311  -0.441  0.00  0.00    +0.000 A 
ATOM     12  C   UNL     1       3.243  -6.030  -1.319  0.00  0.00    +0.000 A 
ATOM     13  C   UNL     1       2.729  -7.042  -2.108  0.00  0.00    +0.000 A 
ATOM     14  C   UNL     1       1.385  -7.319  -2.034  0.00  0.00    +0.000 A 
ATOM     15  C   UNL     1       0.597  -6.592  -1.153  0.00  0.00    +0.000 A 
ATOM     16  C   UNL     1       1.170  -5.591  -0.368  0.00  0.00    +0.000 A 
ENDBRANCH   9  11
ENDBRANCH   4   9
BRANCH   5  17
ATOM     17  O   UNL     1       5.123  -2.656   1.668  0.00  0.00    +0.000 OA
ATOM     18  H   UNL     1       5.855  -2.160   2.114  0.00  0.00    +0.000 HD
ENDBRANCH   5  17
TORSDOF 4
ENDMDL
MODEL 9
REMARK VINA RESULT:      -6.1      2.929      4.981
REMARK  Name = ox1_esm1_f8_ligand
REMARK  5 active torsions:
REMARK  status: ('A' for Active; 'I' for Inactive)
REMARK    1  A    between atoms: C_1  and  O_2
REMARK    2  A    between atoms: O_2  and  C_3
REMARK    3  A    between atoms: C_6  and  C_7
REMARK    4  A    between atoms: C_7  and  C_9
REMARK    5  A    between atoms: C_15  and  O_16
REMARK                            x       y       z     vdW  Elec       q    Type
REMARK                         _______ _______ _______ _____ _____    ______ ____
ROOT
ATOM      1  C   UNL     1       7.278  -6.568   1.787  0.00  0.00    +0.000 A 
ATOM      2  C   UNL     1       6.622  -6.750   0.569  0.00  0.00    +0.000 A 
ATOM      3  C   UNL     1       5.479  -6.020   0.276  0.00  0.00    +0.000 A 
ATOM      4  C   UNL     1       4.978  -5.094   1.175  0.00  0.00    +0.000 A 
ATOM      5  C   UNL     1       5.631  -4.909   2.412  0.00  0.00    +0.000 A 
ATOM      6  C   UNL     1       6.775  -5.653   2.697  0.00  0.00    +0.000 A 
ENDROOT
BRANCH   1   8
ATOM      7  C   UNL     1       9.028  -7.298   3.312  0.00  0.00    +0.000 C 
ATOM      8  O   UNL     1       8.403  -7.302   2.025  0.00  0.00    +0.000 OA
ENDBRANCH   1   8
BRANCH   4   9
ATOM      9  C   UNL     1       3.752  -4.299   0.843  0.00  0.00    +0.000 C 
ATOM     10  O   UNL     1       2.666  -4.652   1.294  0.00  0.00    +0.000 OA
BRANCH   9  11
ATOM     11  C   UNL     1       3.832  -3.102  -0.046  0.00  0.00    +0.000 A 
ATOM     12  C   UNL     1       3.161  -3.058  -1.213  0.00  0.00    +0.000 A 
ATOM     13  C   UNL     1       3.159  -1.971  -2.068  0.00  0.00    +0.000 A 
ATOM     14  C   UNL     1       3.916  -0.872  -1.740  0.00  0.00    +0.000 A 
ATOM     15  C   UNL     1       4.635  -0.882  -0.553  0.00  0.00    +0.000 A 
ATOM     16  C   UNL     1       4.589  -1.999   0.281  0.00  0.00    +0.000 A 
ENDBRANCH   9  11
ENDBRANCH   4   9
BRANCH   5  17
ATOM     17  O   UNL     1       5.128  -4.010   3.307  0.00  0.00    +0.000 OA
ATOM     18  H   UNL     1       4.160  -3.800   3.307  0.00  0.00    +0.000 HD
ENDBRANCH   5  17
TORSDOF 4
ENDMDL
