REMARK  Name = bg33_3_ligand
REMARK  12 active torsions:
REMARK  status: ('A' for Active; 'I' for Inactive)
REMARK    1  A    between atoms: C_1  and  C_2
REMARK    2  A    between atoms: C_2  and  C_3
REMARK    3  A    between atoms: C_3  and  C_4
REMARK    4  A    between atoms: C_4  and  C_5
REMARK    5  A    between atoms: C_5  and  C_6
REMARK    6  A    between atoms: C_5  and  O_8
REMARK    7  A    between atoms: C_6  and  C_7
REMARK    8  A    between atoms: O_8  and  C_9
REMARK    9  A    between atoms: C_9  and  C_11
REMARK   10  A    between atoms: C_12  and  C_13
REMARK   11  A    between atoms: C_16  and  O_17
REMARK   12  A    between atoms: O_17  and  C_18
REMARK                            x       y       z     vdW  Elec       q    Type
REMARK                         _______ _______ _______ _____ _____    ______ ____
ROOT
ATOM      1  C   UNL     1      -2.952  -4.138  -1.863  0.00  0.00    +0.000 C 
ATOM      2  O   UNL     1      -2.660  -3.187  -2.551  0.00  0.00    +0.000 OA
ENDROOT
BRANCH   1   3
ATOM      3  C   UNL     1      -1.972  -5.341  -1.661  0.00  0.00    +0.000 C 
ATOM      4  C   UNL     1      -1.108  -5.309  -0.621  0.00  0.00    +0.000 C 
BRANCH   4   5
ATOM      5  C   UNL     1      -0.110  -6.329  -0.423  0.00  0.00    +0.000 A 
ATOM      6  C   UNL     1       0.972  -6.443  -1.268  0.00  0.00    +0.000 A 
ATOM      7  C   UNL     1       1.945  -7.355  -1.075  0.00  0.00    +0.000 A 
ATOM      8  C   UNL     1       1.840  -8.200   0.006  0.00  0.00    +0.000 A 
ATOM      9  C   UNL     1       0.768  -8.139   0.841  0.00  0.00    +0.000 A 
ATOM     10  C   UNL     1      -0.209  -7.190   0.627  0.00  0.00    +0.000 A 
BRANCH   8  11
ATOM     11  O   UNL     1       2.751  -9.167   0.249  0.00  0.00    +0.000 OA
ATOM     12  C   UNL     1       4.034  -8.959  -0.315  0.00  0.00    +0.000 C 
ENDBRANCH   8  11
ENDBRANCH   4   5
ENDBRANCH   1   3
BRANCH   1  13
ATOM     13  O   UNL     1      -4.099  -4.137  -1.331  0.00  0.00    +0.000 OA
BRANCH  13  14
ATOM     14  C   UNL     1      -4.805  -2.858  -1.253  0.00  0.00    +0.000 C 
BRANCH  14  15
ATOM     15  C   UNL     1      -5.701  -2.893  -0.105  0.00  0.00    +0.000 C 
ATOM     16  C   UNL     1      -5.947  -4.276   0.419  0.00  0.00    +0.000 C 
ENDBRANCH  14  15
BRANCH  14  17
ATOM     17  C   UNL     1      -5.593  -2.599  -2.524  0.00  0.00    +0.000 C 
BRANCH  17  18
ATOM     18  C   UNL     1      -5.475  -1.093  -2.847  0.00  0.00    +0.000 C 
BRANCH  18  20
ATOM     19  C   UNL     1      -5.415   0.636  -4.607  0.00  0.00    +0.000 C 
ATOM     20  C   UNL     1      -5.971  -0.750  -4.215  0.00  0.00    +0.000 C 
ENDBRANCH  18  20
ENDBRANCH  17  18
ENDBRANCH  14  17
ENDBRANCH  13  14
ENDBRANCH   1  13
TORSDOF 9
