MODEL 1
REMARK VINA RESULT:      -4.4      0.000      0.000
REMARK  Name = bg33_3_ligand
REMARK  12 active torsions:
REMARK  status: ('A' for Active; 'I' for Inactive)
REMARK    1  A    between atoms: C_1  and  C_2
REMARK    2  A    between atoms: C_2  and  C_3
REMARK    3  A    between atoms: C_3  and  C_4
REMARK    4  A    between atoms: C_4  and  C_5
REMARK    5  A    between atoms: C_5  and  C_6
REMARK    6  A    between atoms: C_5  and  O_8
REMARK    7  A    between atoms: C_6  and  C_7
REMARK    8  A    between atoms: O_8  and  C_9
REMARK    9  A    between atoms: C_9  and  C_11
REMARK   10  A    between atoms: C_12  and  C_13
REMARK   11  A    between atoms: C_16  and  O_17
REMARK   12  A    between atoms: O_17  and  C_18
REMARK                            x       y       z     vdW  Elec       q    Type
REMARK                         _______ _______ _______ _____ _____    ______ ____
ROOT
ATOM      1  C   UNL     1      -4.916  -8.468   3.424  0.00  0.00    +0.000 C 
ATOM      2  O   UNL     1      -5.258  -9.511   3.932  0.00  0.00    +0.000 OA
ENDROOT
BRANCH   1   3
ATOM      3  C   UNL     1      -4.059  -8.430   2.115  0.00  0.00    +0.000 C 
ATOM      4  C   UNL     1      -2.752  -8.771   2.183  0.00  0.00    +0.000 C 
BRANCH   4   5
ATOM      5  C   UNL     1      -1.874  -8.669   1.046  0.00  0.00    +0.000 A 
ATOM      6  C   UNL     1      -2.326  -8.191  -0.165  0.00  0.00    +0.000 A 
ATOM      7  C   UNL     1      -1.513  -8.038  -1.229  0.00  0.00    +0.000 A 
ATOM      8  C   UNL     1      -0.187  -8.379  -1.089  0.00  0.00    +0.000 A 
ATOM      9  C   UNL     1       0.286  -8.886   0.081  0.00  0.00    +0.000 A 
ATOM     10  C   UNL     1      -0.564  -9.024   1.157  0.00  0.00    +0.000 A 
BRANCH   8  11
ATOM     11  O   UNL     1       0.685  -8.293  -2.117  0.00  0.00    +0.000 OA
ATOM     12  C   UNL     1       1.991  -7.860  -1.780  0.00  0.00    +0.000 C 
ENDBRANCH   8  11
ENDBRANCH   4   5
ENDBRANCH   1   3
BRANCH   1  13
ATOM     13  O   UNL     1      -5.257  -7.400   4.009  0.00  0.00    +0.000 OA
BRANCH  13  14
ATOM     14  C   UNL     1      -6.057  -6.440   3.250  0.00  0.00    +0.000 C 
BRANCH  14  15
ATOM     15  C   UNL     1      -5.984  -5.146   3.916  0.00  0.00    +0.000 C 
ATOM     16  C   UNL     1      -7.325  -4.515   4.143  0.00  0.00    +0.000 C 
ENDBRANCH  14  15
BRANCH  14  17
ATOM     17  C   UNL     1      -7.501  -6.898   3.154  0.00  0.00    +0.000 C 
BRANCH  17  18
ATOM     18  C   UNL     1      -7.821  -7.120   1.659  0.00  0.00    +0.000 C 
BRANCH  18  20
ATOM     19  C   UNL     1      -7.603  -5.150   0.187  0.00  0.00    +0.000 C 
ATOM     20  C   UNL     1      -6.882  -6.396   0.748  0.00  0.00    +0.000 C 
ENDBRANCH  18  20
ENDBRANCH  17  18
ENDBRANCH  14  17
ENDBRANCH  13  14
ENDBRANCH   1  13
TORSDOF 9
ENDMDL
MODEL 2
REMARK VINA RESULT:      -4.4      1.994      7.172
REMARK  Name = bg33_3_ligand
REMARK  12 active torsions:
REMARK  status: ('A' for Active; 'I' for Inactive)
REMARK    1  A    between atoms: C_1  and  C_2
REMARK    2  A    between atoms: C_2  and  C_3
REMARK    3  A    between atoms: C_3  and  C_4
REMARK    4  A    between atoms: C_4  and  C_5
REMARK    5  A    between atoms: C_5  and  C_6
REMARK    6  A    between atoms: C_5  and  O_8
REMARK    7  A    between atoms: C_6  and  C_7
REMARK    8  A    between atoms: O_8  and  C_9
REMARK    9  A    between atoms: C_9  and  C_11
REMARK   10  A    between atoms: C_12  and  C_13
REMARK   11  A    between atoms: C_16  and  O_17
REMARK   12  A    between atoms: O_17  and  C_18
REMARK                            x       y       z     vdW  Elec       q    Type
REMARK                         _______ _______ _______ _____ _____    ______ ____
ROOT
ATOM      1  C   UNL     1      -2.710  -9.683   1.981  0.00  0.00    +0.000 C 
ATOM      2  O   UNL     1      -3.259 -10.755   1.874  0.00  0.00    +0.000 OA
ENDROOT
BRANCH   1   3
ATOM      3  C   UNL     1      -3.458  -8.425   2.533  0.00  0.00    +0.000 C 
ATOM      4  C   UNL     1      -4.798  -8.487   2.703  0.00  0.00    +0.000 C 
BRANCH   4   5
ATOM      5  C   UNL     1      -5.572  -7.344   3.114  0.00  0.00    +0.000 A 
ATOM      6  C   UNL     1      -5.502  -6.859   4.401  0.00  0.00    +0.000 A 
ATOM      7  C   UNL     1      -6.176  -5.761   4.797  0.00  0.00    +0.000 A 
ATOM      8  C   UNL     1      -6.963  -5.113   3.873  0.00  0.00    +0.000 A 
ATOM      9  C   UNL     1      -7.084  -5.583   2.602  0.00  0.00    +0.000 A 
ATOM     10  C   UNL     1      -6.376  -6.703   2.220  0.00  0.00    +0.000 A 
BRANCH   8  11
ATOM     11  O   UNL     1      -7.701  -4.029   4.197  0.00  0.00    +0.000 OA
ATOM     12  C   UNL     1      -9.064  -4.077   3.815  0.00  0.00    +0.000 C 
ENDBRANCH   8  11
ENDBRANCH   4   5
ENDBRANCH   1   3
BRANCH   1  13
ATOM     13  O   UNL     1      -1.506  -9.609   1.600  0.00  0.00    +0.000 OA
BRANCH  13  14
ATOM     14  C   UNL     1      -1.255  -9.578   0.159  0.00  0.00    +0.000 C 
BRANCH  14  15
ATOM     15  C   UNL     1       0.034 -10.203  -0.100  0.00  0.00    +0.000 C 
ATOM     16  C   UNL     1       1.193  -9.262   0.037  0.00  0.00    +0.000 C 
ENDBRANCH  14  15
BRANCH  14  17
ATOM     17  C   UNL     1      -1.258  -8.151  -0.358  0.00  0.00    +0.000 C 
BRANCH  17  18
ATOM     18  C   UNL     1      -2.026  -8.141  -1.698  0.00  0.00    +0.000 C 
BRANCH  18  20
ATOM     19  C   UNL     1      -4.398  -8.007  -1.029  0.00  0.00    +0.000 C 
ATOM     20  C   UNL     1      -3.306  -8.911  -1.641  0.00  0.00    +0.000 C 
ENDBRANCH  18  20
ENDBRANCH  17  18
ENDBRANCH  14  17
ENDBRANCH  13  14
ENDBRANCH   1  13
TORSDOF 9
ENDMDL
MODEL 3
REMARK VINA RESULT:      -4.3      1.935      7.575
REMARK  Name = bg33_3_ligand
REMARK  12 active torsions:
REMARK  status: ('A' for Active; 'I' for Inactive)
REMARK    1  A    between atoms: C_1  and  C_2
REMARK    2  A    between atoms: C_2  and  C_3
REMARK    3  A    between atoms: C_3  and  C_4
REMARK    4  A    between atoms: C_4  and  C_5
REMARK    5  A    between atoms: C_5  and  C_6
REMARK    6  A    between atoms: C_5  and  O_8
REMARK    7  A    between atoms: C_6  and  C_7
REMARK    8  A    between atoms: O_8  and  C_9
REMARK    9  A    between atoms: C_9  and  C_11
REMARK   10  A    between atoms: C_12  and  C_13
REMARK   11  A    between atoms: C_16  and  O_17
REMARK   12  A    between atoms: O_17  and  C_18
REMARK                            x       y       z     vdW  Elec       q    Type
REMARK                         _______ _______ _______ _____ _____    ______ ____
ROOT
ATOM      1  C   UNL     1      -3.159  -9.943   1.958  0.00  0.00    +0.000 C 
ATOM      2  O   UNL     1      -3.616 -11.006   2.309  0.00  0.00    +0.000 OA
ENDROOT
BRANCH   1   3
ATOM      3  C   UNL     1      -3.905  -8.595   2.228  0.00  0.00    +0.000 C 
ATOM      4  C   UNL     1      -4.749  -8.518   3.282  0.00  0.00    +0.000 C 
BRANCH   4   5
ATOM      5  C   UNL     1      -5.547  -7.347   3.541  0.00  0.00    +0.000 A 
ATOM      6  C   UNL     1      -5.611  -6.791   4.800  0.00  0.00    +0.000 A 
ATOM      7  C   UNL     1      -6.308  -5.667   5.057  0.00  0.00    +0.000 A 
ATOM      8  C   UNL     1      -6.979  -5.065   4.018  0.00  0.00    +0.000 A 
ATOM      9  C   UNL     1      -6.967  -5.605   2.770  0.00  0.00    +0.000 A 
ATOM     10  C   UNL     1      -6.237  -6.751   2.531  0.00  0.00    +0.000 A 
BRANCH   8  11
ATOM     11  O   UNL     1      -7.732  -3.958   4.198  0.00  0.00    +0.000 OA
ATOM     12  C   UNL     1      -9.041  -4.010   3.656  0.00  0.00    +0.000 C 
ENDBRANCH   8  11
ENDBRANCH   4   5
ENDBRANCH   1   3
BRANCH   1  13
ATOM     13  O   UNL     1      -2.059  -9.964   1.335  0.00  0.00    +0.000 OA
BRANCH  13  14
ATOM     14  C   UNL     1      -1.777  -8.851   0.428  0.00  0.00    +0.000 C 
BRANCH  14  15
ATOM     15  C   UNL     1      -2.105  -9.265  -0.930  0.00  0.00    +0.000 C 
ATOM     16  C   UNL     1      -2.120  -8.133  -1.913  0.00  0.00    +0.000 C 
ENDBRANCH  14  15
BRANCH  14  17
ATOM     17  C   UNL     1      -0.317  -8.444   0.511  0.00  0.00    +0.000 C 
BRANCH  17  18
ATOM     18  C   UNL     1       0.532  -9.732   0.423  0.00  0.00    +0.000 C 
BRANCH  18  20
ATOM     19  C   UNL     1       1.635  -8.331  -1.283  0.00  0.00    +0.000 C 
ATOM     20  C   UNL     1       1.804  -9.540  -0.337  0.00  0.00    +0.000 C 
ENDBRANCH  18  20
ENDBRANCH  17  18
ENDBRANCH  14  17
ENDBRANCH  13  14
ENDBRANCH   1  13
TORSDOF 9
ENDMDL
MODEL 4
REMARK VINA RESULT:      -4.3      1.704      2.972
REMARK  Name = bg33_3_ligand
REMARK  12 active torsions:
REMARK  status: ('A' for Active; 'I' for Inactive)
REMARK    1  A    between atoms: C_1  and  C_2
REMARK    2  A    between atoms: C_2  and  C_3
REMARK    3  A    between atoms: C_3  and  C_4
REMARK    4  A    between atoms: C_4  and  C_5
REMARK    5  A    between atoms: C_5  and  C_6
REMARK    6  A    between atoms: C_5  and  O_8
REMARK    7  A    between atoms: C_6  and  C_7
REMARK    8  A    between atoms: O_8  and  C_9
REMARK    9  A    between atoms: C_9  and  C_11
REMARK   10  A    between atoms: C_12  and  C_13
REMARK   11  A    between atoms: C_16  and  O_17
REMARK   12  A    between atoms: O_17  and  C_18
REMARK                            x       y       z     vdW  Elec       q    Type
REMARK                         _______ _______ _______ _____ _____    ______ ____
ROOT
ATOM      1  C   UNL     1      -5.139  -8.501   2.831  0.00  0.00    +0.000 C 
ATOM      2  O   UNL     1      -6.197  -9.086   2.807  0.00  0.00    +0.000 OA
ENDROOT
BRANCH   1   3
ATOM      3  C   UNL     1      -4.062  -8.701   1.714  0.00  0.00    +0.000 C 
ATOM      4  C   UNL     1      -2.761  -8.490   2.018  0.00  0.00    +0.000 C 
BRANCH   4   5
ATOM      5  C   UNL     1      -1.721  -8.558   1.024  0.00  0.00    +0.000 A 
ATOM      6  C   UNL     1      -0.510  -9.157   1.297  0.00  0.00    +0.000 A 
ATOM      7  C   UNL     1       0.459  -9.279   0.370  0.00  0.00    +0.000 A 
ATOM      8  C   UNL     1       0.222  -8.779  -0.890  0.00  0.00    +0.000 A 
ATOM      9  C   UNL     1      -0.948  -8.151  -1.185  0.00  0.00    +0.000 A 
ATOM     10  C   UNL     1      -1.928  -8.048  -0.221  0.00  0.00    +0.000 A 
BRANCH   8  11
ATOM     11  O   UNL     1       1.155  -8.826  -1.866  0.00  0.00    +0.000 OA
ATOM     12  C   UNL     1       0.659  -8.984  -3.184  0.00  0.00    +0.000 C 
ENDBRANCH   8  11
ENDBRANCH   4   5
ENDBRANCH   1   3
BRANCH   1  13
ATOM     13  O   UNL     1      -4.922  -7.736   3.814  0.00  0.00    +0.000 OA
BRANCH  13  14
ATOM     14  C   UNL     1      -6.041  -6.926   4.297  0.00  0.00    +0.000 C 
BRANCH  14  15
ATOM     15  C   UNL     1      -5.945  -5.601   3.700  0.00  0.00    +0.000 C 
ATOM     16  C   UNL     1      -6.867  -4.596   4.323  0.00  0.00    +0.000 C 
ENDBRANCH  14  15
BRANCH  14  17
ATOM     17  C   UNL     1      -6.015  -6.821   5.811  0.00  0.00    +0.000 C 
BRANCH  17  18
ATOM     18  C   UNL     1      -7.017  -7.856   6.367  0.00  0.00    +0.000 C 
BRANCH  18  20
ATOM     19  C   UNL     1      -6.308 -10.210   6.158  0.00  0.00    +0.000 C 
ATOM     20  C   UNL     1      -6.351  -8.981   7.092  0.00  0.00    +0.000 C 
ENDBRANCH  18  20
ENDBRANCH  17  18
ENDBRANCH  14  17
ENDBRANCH  13  14
ENDBRANCH   1  13
TORSDOF 9
ENDMDL
MODEL 5
REMARK VINA RESULT:      -4.3      3.302      7.281
REMARK  Name = bg33_3_ligand
REMARK  12 active torsions:
REMARK  status: ('A' for Active; 'I' for Inactive)
REMARK    1  A    between atoms: C_1  and  C_2
REMARK    2  A    between atoms: C_2  and  C_3
REMARK    3  A    between atoms: C_3  and  C_4
REMARK    4  A    between atoms: C_4  and  C_5
REMARK    5  A    between atoms: C_5  and  C_6
REMARK    6  A    between atoms: C_5  and  O_8
REMARK    7  A    between atoms: C_6  and  C_7
REMARK    8  A    between atoms: O_8  and  C_9
REMARK    9  A    between atoms: C_9  and  C_11
REMARK   10  A    between atoms: C_12  and  C_13
REMARK   11  A    between atoms: C_16  and  O_17
REMARK   12  A    between atoms: O_17  and  C_18
REMARK                            x       y       z     vdW  Elec       q    Type
REMARK                         _______ _______ _______ _____ _____    ______ ____
ROOT
ATOM      1  C   UNL     1      -7.461  -5.219  -1.491  0.00  0.00    +0.000 C 
ATOM      2  O   UNL     1      -8.415  -4.494  -1.654  0.00  0.00    +0.000 OA
ENDROOT
BRANCH   1   3
ATOM      3  C   UNL     1      -7.096  -5.796  -0.083  0.00  0.00    +0.000 C 
ATOM      4  C   UNL     1      -7.248  -5.006   1.004  0.00  0.00    +0.000 C 
BRANCH   4   5
ATOM      5  C   UNL     1      -6.843  -5.428   2.320  0.00  0.00    +0.000 A 
ATOM      6  C   UNL     1      -6.130  -6.592   2.509  0.00  0.00    +0.000 A 
ATOM      7  C   UNL     1      -5.696  -6.982   3.724  0.00  0.00    +0.000 A 
ATOM      8  C   UNL     1      -5.986  -6.184   4.806  0.00  0.00    +0.000 A 
ATOM      9  C   UNL     1      -6.718  -5.046   4.662  0.00  0.00    +0.000 A 
ATOM     10  C   UNL     1      -7.141  -4.664   3.407  0.00  0.00    +0.000 A 
BRANCH   8  11
ATOM     11  O   UNL     1      -5.622  -6.522   6.062  0.00  0.00    +0.000 OA
ATOM     12  C   UNL     1      -6.249  -7.676   6.595  0.00  0.00    +0.000 C 
ENDBRANCH   8  11
ENDBRANCH   4   5
ENDBRANCH   1   3
BRANCH   1  13
ATOM     13  O   UNL     1      -6.747  -5.474  -2.503  0.00  0.00    +0.000 OA
BRANCH  13  14
ATOM     14  C   UNL     1      -5.363  -5.885  -2.267  0.00  0.00    +0.000 C 
BRANCH  14  15
ATOM     15  C   UNL     1      -4.504  -5.185  -3.212  0.00  0.00    +0.000 C 
ATOM     16  C   UNL     1      -4.887  -5.406  -4.645  0.00  0.00    +0.000 C 
ENDBRANCH  14  15
BRANCH  14  17
ATOM     17  C   UNL     1      -5.211  -7.386  -2.434  0.00  0.00    +0.000 C 
BRANCH  17  18
ATOM     18  C   UNL     1      -4.144  -7.861  -1.423  0.00  0.00    +0.000 C 
BRANCH  18  20
ATOM     19  C   UNL     1      -3.582  -9.033   0.675  0.00  0.00    +0.000 C 
ATOM     20  C   UNL     1      -4.731  -8.582  -0.252  0.00  0.00    +0.000 C 
ENDBRANCH  18  20
ENDBRANCH  17  18
ENDBRANCH  14  17
ENDBRANCH  13  14
ENDBRANCH   1  13
TORSDOF 9
ENDMDL
MODEL 6
REMARK VINA RESULT:      -4.3      1.350      2.171
REMARK  Name = bg33_3_ligand
REMARK  12 active torsions:
REMARK  status: ('A' for Active; 'I' for Inactive)
REMARK    1  A    between atoms: C_1  and  C_2
REMARK    2  A    between atoms: C_2  and  C_3
REMARK    3  A    between atoms: C_3  and  C_4
REMARK    4  A    between atoms: C_4  and  C_5
REMARK    5  A    between atoms: C_5  and  C_6
REMARK    6  A    between atoms: C_5  and  O_8
REMARK    7  A    between atoms: C_6  and  C_7
REMARK    8  A    between atoms: O_8  and  C_9
REMARK    9  A    between atoms: C_9  and  C_11
REMARK   10  A    between atoms: C_12  and  C_13
REMARK   11  A    between atoms: C_16  and  O_17
REMARK   12  A    between atoms: O_17  and  C_18
REMARK                            x       y       z     vdW  Elec       q    Type
REMARK                         _______ _______ _______ _____ _____    ______ ____
ROOT
ATOM      1  C   UNL     1      -6.026  -8.396   2.846  0.00  0.00    +0.000 C 
ATOM      2  O   UNL     1      -6.730  -9.270   2.393  0.00  0.00    +0.000 OA
ENDROOT
BRANCH   1   3
ATOM      3  C   UNL     1      -4.506  -8.296   2.490  0.00  0.00    +0.000 C 
ATOM      4  C   UNL     1      -4.119  -8.529   1.215  0.00  0.00    +0.000 C 
BRANCH   4   5
ATOM      5  C   UNL     1      -2.731  -8.552   0.828  0.00  0.00    +0.000 A 
ATOM      6  C   UNL     1      -1.760  -9.034   1.678  0.00  0.00    +0.000 A 
ATOM      7  C   UNL     1      -0.463  -9.113   1.322  0.00  0.00    +0.000 A 
ATOM      8  C   UNL     1      -0.108  -8.690   0.061  0.00  0.00    +0.000 A 
ATOM      9  C   UNL     1      -1.034  -8.176  -0.792  0.00  0.00    +0.000 A 
ATOM     10  C   UNL     1      -2.357  -8.115  -0.406  0.00  0.00    +0.000 A 
BRANCH   8  11
ATOM     11  O   UNL     1       1.175  -8.699  -0.361  0.00  0.00    +0.000 OA
ATOM     12  C   UNL     1       1.367  -8.483  -1.748  0.00  0.00    +0.000 C 
ENDBRANCH   8  11
ENDBRANCH   4   5
ENDBRANCH   1   3
BRANCH   1  13
ATOM     13  O   UNL     1      -6.562  -7.577   3.646  0.00  0.00    +0.000 OA
BRANCH  13  14
ATOM     14  C   UNL     1      -5.731  -6.483   4.149  0.00  0.00    +0.000 C 
BRANCH  14  15
ATOM     15  C   UNL     1      -5.940  -6.366   5.586  0.00  0.00    +0.000 C 
ATOM     16  C   UNL     1      -6.191  -7.680   6.262  0.00  0.00    +0.000 C 
ENDBRANCH  14  15
BRANCH  14  17
ATOM     17  C   UNL     1      -6.084  -5.178   3.460  0.00  0.00    +0.000 C 
BRANCH  17  18
ATOM     18  C   UNL     1      -7.351  -4.618   4.144  0.00  0.00    +0.000 C 
BRANCH  18  20
ATOM     19  C   UNL     1      -8.049  -4.868   1.791  0.00  0.00    +0.000 C 
ATOM     20  C   UNL     1      -8.525  -4.538   3.222  0.00  0.00    +0.000 C 
ENDBRANCH  18  20
ENDBRANCH  17  18
ENDBRANCH  14  17
ENDBRANCH  13  14
ENDBRANCH   1  13
TORSDOF 9
ENDMDL
MODEL 7
REMARK VINA RESULT:      -4.2      2.060      6.950
REMARK  Name = bg33_3_ligand
REMARK  12 active torsions:
REMARK  status: ('A' for Active; 'I' for Inactive)
REMARK    1  A    between atoms: C_1  and  C_2
REMARK    2  A    between atoms: C_2  and  C_3
REMARK    3  A    between atoms: C_3  and  C_4
REMARK    4  A    between atoms: C_4  and  C_5
REMARK    5  A    between atoms: C_5  and  C_6
REMARK    6  A    between atoms: C_5  and  O_8
REMARK    7  A    between atoms: C_6  and  C_7
REMARK    8  A    between atoms: O_8  and  C_9
REMARK    9  A    between atoms: C_9  and  C_11
REMARK   10  A    between atoms: C_12  and  C_13
REMARK   11  A    between atoms: C_16  and  O_17
REMARK   12  A    between atoms: O_17  and  C_18
REMARK                            x       y       z     vdW  Elec       q    Type
REMARK                         _______ _______ _______ _____ _____    ______ ____
ROOT
ATOM      1  C   UNL     1      -1.175  -9.128   1.274  0.00  0.00    +0.000 C 
ATOM      2  O   UNL     1      -0.700 -10.240   1.307  0.00  0.00    +0.000 OA
ENDROOT
BRANCH   1   3
ATOM      3  C   UNL     1      -2.309  -8.687   2.258  0.00  0.00    +0.000 C 
ATOM      4  C   UNL     1      -3.511  -9.302   2.185  0.00  0.00    +0.000 C 
BRANCH   4   5
ATOM      5  C   UNL     1      -4.633  -8.889   2.987  0.00  0.00    +0.000 A 
ATOM      6  C   UNL     1      -5.392  -9.807   3.680  0.00  0.00    +0.000 A 
ATOM      7  C   UNL     1      -6.415  -9.441   4.478  0.00  0.00    +0.000 A 
ATOM      8  C   UNL     1      -6.705  -8.101   4.593  0.00  0.00    +0.000 A 
ATOM      9  C   UNL     1      -5.999  -7.170   3.896  0.00  0.00    +0.000 A 
ATOM     10  C   UNL     1      -4.950  -7.569   3.094  0.00  0.00    +0.000 A 
BRANCH   8  11
ATOM     11  O   UNL     1      -7.737  -7.654   5.340  0.00  0.00    +0.000 OA
ATOM     12  C   UNL     1      -7.997  -6.263   5.260  0.00  0.00    +0.000 C 
ENDBRANCH   8  11
ENDBRANCH   4   5
ENDBRANCH   1   3
BRANCH   1  13
ATOM     13  O   UNL     1      -0.738  -8.338   0.389  0.00  0.00    +0.000 OA
BRANCH  13  14
ATOM     14  C   UNL     1      -1.136  -8.590  -0.996  0.00  0.00    +0.000 C 
BRANCH  14  15
ATOM     15  C   UNL     1       0.021  -8.377  -1.856  0.00  0.00    +0.000 C 
ATOM     16  C   UNL     1       1.286  -8.103  -1.099  0.00  0.00    +0.000 C 
ENDBRANCH  14  15
BRANCH  14  17
ATOM     17  C   UNL     1      -2.270  -7.670  -1.408  0.00  0.00    +0.000 C 
BRANCH  17  18
ATOM     18  C   UNL     1      -3.551  -8.527  -1.512  0.00  0.00    +0.000 C 
BRANCH  18  20
ATOM     19  C   UNL     1      -5.832  -8.919  -0.655  0.00  0.00    +0.000 C 
ATOM     20  C   UNL     1      -4.753  -7.850  -0.936  0.00  0.00    +0.000 C 
ENDBRANCH  18  20
ENDBRANCH  17  18
ENDBRANCH  14  17
ENDBRANCH  13  14
ENDBRANCH   1  13
TORSDOF 9
ENDMDL
MODEL 8
REMARK VINA RESULT:      -4.2      3.292      7.871
REMARK  Name = bg33_3_ligand
REMARK  12 active torsions:
REMARK  status: ('A' for Active; 'I' for Inactive)
REMARK    1  A    between atoms: C_1  and  C_2
REMARK    2  A    between atoms: C_2  and  C_3
REMARK    3  A    between atoms: C_3  and  C_4
REMARK    4  A    between atoms: C_4  and  C_5
REMARK    5  A    between atoms: C_5  and  C_6
REMARK    6  A    between atoms: C_5  and  O_8
REMARK    7  A    between atoms: C_6  and  C_7
REMARK    8  A    between atoms: O_8  and  C_9
REMARK    9  A    between atoms: C_9  and  C_11
REMARK   10  A    between atoms: C_12  and  C_13
REMARK   11  A    between atoms: C_16  and  O_17
REMARK   12  A    between atoms: O_17  and  C_18
REMARK                            x       y       z     vdW  Elec       q    Type
REMARK                         _______ _______ _______ _____ _____    ______ ____
ROOT
ATOM      1  C   UNL     1      -6.493  -7.276   0.822  0.00  0.00    +0.000 C 
ATOM      2  O   UNL     1      -6.050  -7.906  -0.111  0.00  0.00    +0.000 OA
ENDROOT
BRANCH   1   3
ATOM      3  C   UNL     1      -7.051  -5.825   0.646  0.00  0.00    +0.000 C 
ATOM      4  C   UNL     1      -8.335  -5.576   0.986  0.00  0.00    +0.000 C 
BRANCH   4   5
ATOM      5  C   UNL     1      -8.952  -4.293   0.764  0.00  0.00    +0.000 A 
ATOM      6  C   UNL     1      -9.801  -3.738   1.696  0.00  0.00    +0.000 A 
ATOM      7  C   UNL     1     -10.350  -2.518   1.535  0.00  0.00    +0.000 A 
ATOM      8  C   UNL     1     -10.047  -1.813   0.392  0.00  0.00    +0.000 A 
ATOM      9  C   UNL     1      -9.240  -2.345  -0.565  0.00  0.00    +0.000 A 
ATOM     10  C   UNL     1      -8.683  -3.592  -0.371  0.00  0.00    +0.000 A 
BRANCH   8  11
ATOM     11  O   UNL     1     -10.585  -0.601   0.135  0.00  0.00    +0.000 OA
ATOM     12  C   UNL     1      -9.888   0.193  -0.809  0.00  0.00    +0.000 C 
ENDBRANCH   8  11
ENDBRANCH   4   5
ENDBRANCH   1   3
BRANCH   1  13
ATOM     13  O   UNL     1      -6.462  -7.828   1.959  0.00  0.00    +0.000 OA
BRANCH  13  14
ATOM     14  C   UNL     1      -5.398  -7.422   2.877  0.00  0.00    +0.000 C 
BRANCH  14  15
ATOM     15  C   UNL     1      -4.574  -8.586   3.175  0.00  0.00    +0.000 C 
ATOM     16  C   UNL     1      -3.256  -8.584   2.460  0.00  0.00    +0.000 C 
ENDBRANCH  14  15
BRANCH  14  17
ATOM     17  C   UNL     1      -5.979  -6.851   4.157  0.00  0.00    +0.000 C 
BRANCH  17  18
ATOM     18  C   UNL     1      -5.829  -5.315   4.093  0.00  0.00    +0.000 C 
BRANCH  18  20
ATOM     19  C   UNL     1      -8.191  -5.597   4.751  0.00  0.00    +0.000 C 
ATOM     20  C   UNL     1      -7.131  -4.596   4.244  0.00  0.00    +0.000 C 
ENDBRANCH  18  20
ENDBRANCH  17  18
ENDBRANCH  14  17
ENDBRANCH  13  14
ENDBRANCH   1  13
TORSDOF 9
ENDMDL
MODEL 9
REMARK VINA RESULT:      -4.1      2.073      2.745
REMARK  Name = bg33_3_ligand
REMARK  12 active torsions:
REMARK  status: ('A' for Active; 'I' for Inactive)
REMARK    1  A    between atoms: C_1  and  C_2
REMARK    2  A    between atoms: C_2  and  C_3
REMARK    3  A    between atoms: C_3  and  C_4
REMARK    4  A    between atoms: C_4  and  C_5
REMARK    5  A    between atoms: C_5  and  C_6
REMARK    6  A    between atoms: C_5  and  O_8
REMARK    7  A    between atoms: C_6  and  C_7
REMARK    8  A    between atoms: O_8  and  C_9
REMARK    9  A    between atoms: C_9  and  C_11
REMARK   10  A    between atoms: C_12  and  C_13
REMARK   11  A    between atoms: C_16  and  O_17
REMARK   12  A    between atoms: O_17  and  C_18
REMARK                            x       y       z     vdW  Elec       q    Type
REMARK                         _______ _______ _______ _____ _____    ______ ____
ROOT
ATOM      1  C   UNL     1      -7.332  -8.235   0.743  0.00  0.00    +0.000 C 
ATOM      2  O   UNL     1      -8.071  -9.190   0.689  0.00  0.00    +0.000 OA
ENDROOT
BRANCH   1   3
ATOM      3  C   UNL     1      -5.836  -8.323   0.292  0.00  0.00    +0.000 C 
ATOM      4  C   UNL     1      -4.893  -8.610   1.218  0.00  0.00    +0.000 C 
BRANCH   4   5
ATOM      5  C   UNL     1      -3.487  -8.614   0.904  0.00  0.00    +0.000 A 
ATOM      6  C   UNL     1      -3.033  -8.237  -0.341  0.00  0.00    +0.000 A 
ATOM      7  C   UNL     1      -1.721  -8.183  -0.644  0.00  0.00    +0.000 A 
ATOM      8  C   UNL     1      -0.813  -8.523   0.332  0.00  0.00    +0.000 A 
ATOM      9  C   UNL     1      -1.226  -8.932   1.562  0.00  0.00    +0.000 A 
ATOM     10  C   UNL     1      -2.574  -8.970   1.849  0.00  0.00    +0.000 A 
BRANCH   8  11
ATOM     11  O   UNL     1       0.518  -8.533   0.100  0.00  0.00    +0.000 OA
ATOM     12  C   UNL     1       0.914  -8.199  -1.219  0.00  0.00    +0.000 C 
ENDBRANCH   8  11
ENDBRANCH   4   5
ENDBRANCH   1   3
BRANCH   1  13
ATOM     13  O   UNL     1      -7.809  -7.160   1.208  0.00  0.00    +0.000 OA
BRANCH  13  14
ATOM     14  C   UNL     1      -7.080  -5.923   0.929  0.00  0.00    +0.000 C 
BRANCH  14  15
ATOM     15  C   UNL     1      -7.176  -5.056   2.096  0.00  0.00    +0.000 C 
ATOM     16  C   UNL     1      -6.253  -5.450   3.211  0.00  0.00    +0.000 C 
ENDBRANCH  14  15
BRANCH  14  17
ATOM     17  C   UNL     1      -7.651  -5.223  -0.290  0.00  0.00    +0.000 C 
BRANCH  17  18
ATOM     18  C   UNL     1      -6.462  -4.714  -1.136  0.00  0.00    +0.000 C 
BRANCH  18  20
ATOM     19  C   UNL     1      -4.554  -5.416  -2.534  0.00  0.00    +0.000 C 
ATOM     20  C   UNL     1      -6.032  -5.691  -2.183  0.00  0.00    +0.000 C 
ENDBRANCH  18  20
ENDBRANCH  17  18
ENDBRANCH  14  17
ENDBRANCH  13  14
ENDBRANCH   1  13
TORSDOF 9
ENDMDL
