REMARK  Name = ox2_shuffle_esm0_ligand
REMARK  5 active torsions:
REMARK  status: ('A' for Active; 'I' for Inactive)
REMARK    1  A    between atoms: C_1  and  O_2
REMARK    2  A    between atoms: O_2  and  C_3
REMARK    3  A    between atoms: C_6  and  C_7
REMARK    4  A    between atoms: C_7  and  C_9
REMARK    5  A    between atoms: C_15  and  O_16
REMARK                            x       y       z     vdW  Elec       q    Type
REMARK                         _______ _______ _______ _____ _____    ______ ____
ROOT
ATOM      1  C   UNL     1      -0.072   3.047   4.405  0.00  0.00    +0.000 A 
ATOM      2  C   UNL     1      -1.032   3.823   3.767  0.00  0.00    +0.000 A 
ATOM      3  C   UNL     1      -0.760   4.367   2.537  0.00  0.00    +0.000 A 
ATOM      4  C   UNL     1       0.450   4.150   1.919  0.00  0.00    +0.000 A 
ATOM      5  C   UNL     1       1.415   3.392   2.567  0.00  0.00    +0.000 A 
ATOM      6  C   UNL     1       1.143   2.837   3.802  0.00  0.00    +0.000 A 
ENDROOT
BRANCH   1   8
ATOM      7  C   UNL     1      -1.317   2.955   6.482  0.00  0.00    +0.000 C 
ATOM      8  O   UNL     1      -0.294   2.470   5.607  0.00  0.00    +0.000 OA
ENDBRANCH   1   8
BRANCH   4   9
ATOM      9  C   UNL     1       0.782   4.703   0.578  0.00  0.00    +0.000 C 
ATOM     10  O   UNL     1       1.947   4.899   0.338  0.00  0.00    +0.000 OA
BRANCH   9  11
ATOM     11  C   UNL     1      -0.191   4.966  -0.501  0.00  0.00    +0.000 A 
ATOM     12  C   UNL     1       0.283   5.365  -1.750  0.00  0.00    +0.000 A 
ATOM     13  C   UNL     1      -0.587   5.599  -2.790  0.00  0.00    +0.000 A 
ATOM     14  C   UNL     1      -1.948   5.447  -2.612  0.00  0.00    +0.000 A 
ATOM     15  C   UNL     1      -2.425   5.041  -1.382  0.00  0.00    +0.000 A 
ATOM     16  C   UNL     1      -1.544   4.796  -0.343  0.00  0.00    +0.000 A 
ENDBRANCH   9  11
ENDBRANCH   4   9
BRANCH   5  17
ATOM     17  O   UNL     1       2.618   3.206   1.958  0.00  0.00    +0.000 OA
ATOM     18  H   UNL     1       3.320   2.669   2.404  0.00  0.00    +0.000 HD
ENDBRANCH   5  17
TORSDOF 4
