MODEL 1
REMARK VINA RESULT:      -5.7      0.000      0.000
REMARK  Name = ox2_shuffle_esm0_ligand
REMARK  5 active torsions:
REMARK  status: ('A' for Active; 'I' for Inactive)
REMARK    1  A    between atoms: C_1  and  O_2
REMARK    2  A    between atoms: O_2  and  C_3
REMARK    3  A    between atoms: C_6  and  C_7
REMARK    4  A    between atoms: C_7  and  C_9
REMARK    5  A    between atoms: C_15  and  O_16
REMARK                            x       y       z     vdW  Elec       q    Type
REMARK                         _______ _______ _______ _____ _____    ______ ____
ROOT
ATOM      1  C   UNL     1      -6.039   0.749  -7.106  0.00  0.00    +0.000 A 
ATOM      2  C   UNL     1      -5.918  -0.061  -8.228  0.00  0.00    +0.000 A 
ATOM      3  C   UNL     1      -6.551  -1.278  -8.262  0.00  0.00    +0.000 A 
ATOM      4  C   UNL     1      -7.314  -1.708  -7.201  0.00  0.00    +0.000 A 
ATOM      5  C   UNL     1      -7.417  -0.907  -6.072  0.00  0.00    +0.000 A 
ATOM      6  C   UNL     1      -6.787   0.321  -6.037  0.00  0.00    +0.000 A 
ENDROOT
BRANCH   1   8
ATOM      7  C   UNL     1      -4.199   2.223  -7.663  0.00  0.00    +0.000 C 
ATOM      8  O   UNL     1      -5.454   1.965  -7.027  0.00  0.00    +0.000 OA
ENDBRANCH   1   8
BRANCH   4   9
ATOM      9  C   UNL     1      -8.034  -3.010  -7.200  0.00  0.00    +0.000 C 
ATOM     10  O   UNL     1      -9.233  -2.974  -7.319  0.00  0.00    +0.000 OA
BRANCH   9  11
ATOM     11  C   UNL     1      -7.394  -4.339  -7.134  0.00  0.00    +0.000 A 
ATOM     12  C   UNL     1      -7.701  -5.179  -6.064  0.00  0.00    +0.000 A 
ATOM     13  C   UNL     1      -7.145  -6.434  -5.974  0.00  0.00    +0.000 A 
ATOM     14  C   UNL     1      -6.267  -6.882  -6.942  0.00  0.00    +0.000 A 
ATOM     15  C   UNL     1      -5.967  -6.061  -8.010  0.00  0.00    +0.000 A 
ATOM     16  C   UNL     1      -6.539  -4.804  -8.101  0.00  0.00    +0.000 A 
ENDBRANCH   9  11
ENDBRANCH   4   9
BRANCH   5  17
ATOM     17  O   UNL     1      -8.152  -1.355  -5.018  0.00  0.00    +0.000 OA
ATOM     18  H   UNL     1      -7.983  -0.998  -4.110  0.00  0.00    +0.000 HD
ENDBRANCH   5  17
TORSDOF 4
ENDMDL
MODEL 2
REMARK VINA RESULT:      -5.7      1.607      5.788
REMARK  Name = ox2_shuffle_esm0_ligand
REMARK  5 active torsions:
REMARK  status: ('A' for Active; 'I' for Inactive)
REMARK    1  A    between atoms: C_1  and  O_2
REMARK    2  A    between atoms: O_2  and  C_3
REMARK    3  A    between atoms: C_6  and  C_7
REMARK    4  A    between atoms: C_7  and  C_9
REMARK    5  A    between atoms: C_15  and  O_16
REMARK                            x       y       z     vdW  Elec       q    Type
REMARK                         _______ _______ _______ _____ _____    ______ ____
ROOT
ATOM      1  C   UNL     1      -7.008  -4.700  -7.777  0.00  0.00    +0.000 A 
ATOM      2  C   UNL     1      -6.105  -4.050  -8.610  0.00  0.00    +0.000 A 
ATOM      3  C   UNL     1      -6.025  -2.681  -8.590  0.00  0.00    +0.000 A 
ATOM      4  C   UNL     1      -6.823  -1.937  -7.751  0.00  0.00    +0.000 A 
ATOM      5  C   UNL     1      -7.739  -2.587  -6.936  0.00  0.00    +0.000 A 
ATOM      6  C   UNL     1      -7.818  -3.965  -6.948  0.00  0.00    +0.000 A 
ENDROOT
BRANCH   1   8
ATOM      7  C   UNL     1      -6.184  -6.842  -6.999  0.00  0.00    +0.000 C 
ATOM      8  O   UNL     1      -7.114  -6.047  -7.741  0.00  0.00    +0.000 OA
ENDBRANCH   1   8
BRANCH   4   9
ATOM      9  C   UNL     1      -6.757  -0.452  -7.682  0.00  0.00    +0.000 C 
ATOM     10  O   UNL     1      -7.796   0.149  -7.793  0.00  0.00    +0.000 OA
BRANCH   9  11
ATOM     11  C   UNL     1      -5.537   0.337  -7.420  0.00  0.00    +0.000 A 
ATOM     12  C   UNL     1      -4.676  -0.075  -6.404  0.00  0.00    +0.000 A 
ATOM     13  C   UNL     1      -3.516   0.617  -6.142  0.00  0.00    +0.000 A 
ATOM     14  C   UNL     1      -3.188   1.738  -6.879  0.00  0.00    +0.000 A 
ATOM     15  C   UNL     1      -4.029   2.146  -7.894  0.00  0.00    +0.000 A 
ATOM     16  C   UNL     1      -5.188   1.439  -8.161  0.00  0.00    +0.000 A 
ENDBRANCH   9  11
ENDBRANCH   4   9
BRANCH   5  17
ATOM     17  O   UNL     1      -8.542  -1.839  -6.130  0.00  0.00    +0.000 OA
ATOM     18  H   UNL     1      -8.227  -0.962  -5.796  0.00  0.00    +0.000 HD
ENDBRANCH   5  17
TORSDOF 4
ENDMDL
MODEL 3
REMARK VINA RESULT:      -5.4      1.081      1.789
REMARK  Name = ox2_shuffle_esm0_ligand
REMARK  5 active torsions:
REMARK  status: ('A' for Active; 'I' for Inactive)
REMARK    1  A    between atoms: C_1  and  O_2
REMARK    2  A    between atoms: O_2  and  C_3
REMARK    3  A    between atoms: C_6  and  C_7
REMARK    4  A    between atoms: C_7  and  C_9
REMARK    5  A    between atoms: C_15  and  O_16
REMARK                            x       y       z     vdW  Elec       q    Type
REMARK                         _______ _______ _______ _____ _____    ______ ____
ROOT
ATOM      1  C   UNL     1      -5.612   0.494  -6.894  0.00  0.00    +0.000 A 
ATOM      2  C   UNL     1      -6.414   0.204  -5.796  0.00  0.00    +0.000 A 
ATOM      3  C   UNL     1      -7.228  -0.900  -5.821  0.00  0.00    +0.000 A 
ATOM      4  C   UNL     1      -7.258  -1.734  -6.915  0.00  0.00    +0.000 A 
ATOM      5  C   UNL     1      -6.471  -1.431  -8.018  0.00  0.00    +0.000 A 
ATOM      6  C   UNL     1      -5.646  -0.324  -7.995  0.00  0.00    +0.000 A 
ENDROOT
BRANCH   1   8
ATOM      7  C   UNL     1      -3.555   1.551  -6.170  0.00  0.00    +0.000 C 
ATOM      8  O   UNL     1      -4.777   1.556  -6.915  0.00  0.00    +0.000 OA
ENDBRANCH   1   8
BRANCH   4   9
ATOM      9  C   UNL     1      -8.109  -2.952  -6.979  0.00  0.00    +0.000 C 
ATOM     10  O   UNL     1      -9.215  -2.826  -7.441  0.00  0.00    +0.000 OA
BRANCH   9  11
ATOM     11  C   UNL     1      -7.684  -4.311  -6.585  0.00  0.00    +0.000 A 
ATOM     12  C   UNL     1      -8.135  -4.830  -5.373  0.00  0.00    +0.000 A 
ATOM     13  C   UNL     1      -7.782  -6.100  -4.978  0.00  0.00    +0.000 A 
ATOM     14  C   UNL     1      -6.970  -6.881  -5.775  0.00  0.00    +0.000 A 
ATOM     15  C   UNL     1      -6.528  -6.379  -6.983  0.00  0.00    +0.000 A 
ATOM     16  C   UNL     1      -6.896  -5.105  -7.380  0.00  0.00    +0.000 A 
ENDBRANCH   9  11
ENDBRANCH   4   9
BRANCH   5  17
ATOM     17  O   UNL     1      -6.529  -2.248  -9.105  0.00  0.00    +0.000 OA
ATOM     18  H   UNL     1      -7.337  -2.795  -9.270  0.00  0.00    +0.000 HD
ENDBRANCH   5  17
TORSDOF 4
ENDMDL
MODEL 4
REMARK VINA RESULT:      -5.3      1.819      2.352
REMARK  Name = ox2_shuffle_esm0_ligand
REMARK  5 active torsions:
REMARK  status: ('A' for Active; 'I' for Inactive)
REMARK    1  A    between atoms: C_1  and  O_2
REMARK    2  A    between atoms: O_2  and  C_3
REMARK    3  A    between atoms: C_6  and  C_7
REMARK    4  A    between atoms: C_7  and  C_9
REMARK    5  A    between atoms: C_15  and  O_16
REMARK                            x       y       z     vdW  Elec       q    Type
REMARK                         _______ _______ _______ _____ _____    ______ ____
ROOT
ATOM      1  C   UNL     1      -5.794   1.485  -5.912  0.00  0.00    +0.000 A 
ATOM      2  C   UNL     1      -4.730   0.640  -6.202  0.00  0.00    +0.000 A 
ATOM      3  C   UNL     1      -4.933  -0.462  -6.993  0.00  0.00    +0.000 A 
ATOM      4  C   UNL     1      -6.177  -0.742  -7.512  0.00  0.00    +0.000 A 
ATOM      5  C   UNL     1      -7.242   0.092  -7.204  0.00  0.00    +0.000 A 
ATOM      6  C   UNL     1      -7.041   1.206  -6.413  0.00  0.00    +0.000 A 
ENDROOT
BRANCH   1   8
ATOM      7  C   UNL     1      -4.590   2.702  -4.197  0.00  0.00    +0.000 C 
ATOM      8  O   UNL     1      -5.647   2.596  -5.155  0.00  0.00    +0.000 OA
ENDBRANCH   1   8
BRANCH   4   9
ATOM      9  C   UNL     1      -6.440  -1.914  -8.390  0.00  0.00    +0.000 C 
ATOM     10  O   UNL     1      -6.365  -1.736  -9.580  0.00  0.00    +0.000 OA
BRANCH   9  11
ATOM     11  C   UNL     1      -6.718  -3.286  -7.921  0.00  0.00    +0.000 A 
ATOM     12  C   UNL     1      -6.000  -4.344  -8.477  0.00  0.00    +0.000 A 
ATOM     13  C   UNL     1      -6.211  -5.636  -8.054  0.00  0.00    +0.000 A 
ATOM     14  C   UNL     1      -7.143  -5.907  -7.072  0.00  0.00    +0.000 A 
ATOM     15  C   UNL     1      -7.850  -4.864  -6.507  0.00  0.00    +0.000 A 
ATOM     16  C   UNL     1      -7.625  -3.566  -6.930  0.00  0.00    +0.000 A 
ENDBRANCH   9  11
ENDBRANCH   4   9
BRANCH   5  17
ATOM     17  O   UNL     1      -8.473  -0.209  -7.701  0.00  0.00    +0.000 OA
ATOM     18  H   UNL     1      -9.091   0.518  -7.965  0.00  0.00    +0.000 HD
ENDBRANCH   5  17
TORSDOF 4
ENDMDL
MODEL 5
REMARK VINA RESULT:      -5.3      2.685      6.206
REMARK  Name = ox2_shuffle_esm0_ligand
REMARK  5 active torsions:
REMARK  status: ('A' for Active; 'I' for Inactive)
REMARK    1  A    between atoms: C_1  and  O_2
REMARK    2  A    between atoms: O_2  and  C_3
REMARK    3  A    between atoms: C_6  and  C_7
REMARK    4  A    between atoms: C_7  and  C_9
REMARK    5  A    between atoms: C_15  and  O_16
REMARK                            x       y       z     vdW  Elec       q    Type
REMARK                         _______ _______ _______ _____ _____    ______ ____
ROOT
ATOM      1  C   UNL     1      -8.530  -5.964  -3.052  0.00  0.00    +0.000 A 
ATOM      2  C   UNL     1      -9.262  -4.793  -3.209  0.00  0.00    +0.000 A 
ATOM      3  C   UNL     1      -9.266  -4.151  -4.421  0.00  0.00    +0.000 A 
ATOM      4  C   UNL     1      -8.561  -4.653  -5.491  0.00  0.00    +0.000 A 
ATOM      5  C   UNL     1      -7.815  -5.812  -5.326  0.00  0.00    +0.000 A 
ATOM      6  C   UNL     1      -7.813  -6.465  -4.109  0.00  0.00    +0.000 A 
ENDROOT
BRANCH   1   8
ATOM      7  C   UNL     1      -7.363  -6.608  -1.028  0.00  0.00    +0.000 C 
ATOM      8  O   UNL     1      -8.507  -6.649  -1.886  0.00  0.00    +0.000 OA
ENDBRANCH   1   8
BRANCH   4   9
ATOM      9  C   UNL     1      -8.553  -4.003  -6.829  0.00  0.00    +0.000 C 
ATOM     10  O   UNL     1      -9.224  -4.511  -7.691  0.00  0.00    +0.000 OA
BRANCH   9  11
ATOM     11  C   UNL     1      -7.844  -2.751  -7.164  0.00  0.00    +0.000 A 
ATOM     12  C   UNL     1      -6.676  -2.823  -7.921  0.00  0.00    +0.000 A 
ATOM     13  C   UNL     1      -5.996  -1.680  -8.275  0.00  0.00    +0.000 A 
ATOM     14  C   UNL     1      -6.459  -0.440  -7.881  0.00  0.00    +0.000 A 
ATOM     15  C   UNL     1      -7.621  -0.359  -7.141  0.00  0.00    +0.000 A 
ATOM     16  C   UNL     1      -8.306  -1.511  -6.798  0.00  0.00    +0.000 A 
ENDBRANCH   9  11
ENDBRANCH   4   9
BRANCH   5  17
ATOM     17  O   UNL     1      -7.100  -6.285  -6.384  0.00  0.00    +0.000 OA
ATOM     18  H   UNL     1      -6.435  -5.703  -6.830  0.00  0.00    +0.000 HD
ENDBRANCH   5  17
TORSDOF 4
ENDMDL
MODEL 6
REMARK VINA RESULT:      -5.2      2.252      6.149
REMARK  Name = ox2_shuffle_esm0_ligand
REMARK  5 active torsions:
REMARK  status: ('A' for Active; 'I' for Inactive)
REMARK    1  A    between atoms: C_1  and  O_2
REMARK    2  A    between atoms: O_2  and  C_3
REMARK    3  A    between atoms: C_6  and  C_7
REMARK    4  A    between atoms: C_7  and  C_9
REMARK    5  A    between atoms: C_15  and  O_16
REMARK                            x       y       z     vdW  Elec       q    Type
REMARK                         _______ _______ _______ _____ _____    ______ ____
ROOT
ATOM      1  C   UNL     1      -8.090  -5.497  -6.460  0.00  0.00    +0.000 A 
ATOM      2  C   UNL     1      -8.586  -4.243  -6.127  0.00  0.00    +0.000 A 
ATOM      3  C   UNL     1      -8.060  -3.123  -6.720  0.00  0.00    +0.000 A 
ATOM      4  C   UNL     1      -7.050  -3.223  -7.649  0.00  0.00    +0.000 A 
ATOM      5  C   UNL     1      -6.542  -4.475  -7.966  0.00  0.00    +0.000 A 
ATOM      6  C   UNL     1      -7.073  -5.605  -7.376  0.00  0.00    +0.000 A 
ENDROOT
BRANCH   1   8
ATOM      7  C   UNL     1      -8.512  -6.880  -4.515  0.00  0.00    +0.000 C 
ATOM      8  O   UNL     1      -8.585  -6.635  -5.923  0.00  0.00    +0.000 OA
ENDBRANCH   1   8
BRANCH   4   9
ATOM      9  C   UNL     1      -6.462  -2.039  -8.332  0.00  0.00    +0.000 C 
ATOM     10  O   UNL     1      -6.278  -2.126  -9.520  0.00  0.00    +0.000 OA
BRANCH   9  11
ATOM     11  C   UNL     1      -6.151  -0.748  -7.686  0.00  0.00    +0.000 A 
ATOM     12  C   UNL     1      -7.096   0.276  -7.742  0.00  0.00    +0.000 A 
ATOM     13  C   UNL     1      -6.856   1.487  -7.134  0.00  0.00    +0.000 A 
ATOM     14  C   UNL     1      -5.672   1.710  -6.461  0.00  0.00    +0.000 A 
ATOM     15  C   UNL     1      -4.736   0.698  -6.390  0.00  0.00    +0.000 A 
ATOM     16  C   UNL     1      -4.987  -0.522  -6.994  0.00  0.00    +0.000 A 
ENDBRANCH   9  11
ENDBRANCH   4   9
BRANCH   5  17
ATOM     17  O   UNL     1      -5.525  -4.559  -8.866  0.00  0.00    +0.000 OA
ATOM     18  H   UNL     1      -4.648  -4.149  -8.661  0.00  0.00    +0.000 HD
ENDBRANCH   5  17
TORSDOF 4
ENDMDL
MODEL 7
REMARK VINA RESULT:      -5.0     13.567     15.985
REMARK  Name = ox2_shuffle_esm0_ligand
REMARK  5 active torsions:
REMARK  status: ('A' for Active; 'I' for Inactive)
REMARK    1  A    between atoms: C_1  and  O_2
REMARK    2  A    between atoms: O_2  and  C_3
REMARK    3  A    between atoms: C_6  and  C_7
REMARK    4  A    between atoms: C_7  and  C_9
REMARK    5  A    between atoms: C_15  and  O_16
REMARK                            x       y       z     vdW  Elec       q    Type
REMARK                         _______ _______ _______ _____ _____    ______ ____
ROOT
ATOM      1  C   UNL     1       9.792  -1.736  -1.276  0.00  0.00    +0.000 A 
ATOM      2  C   UNL     1      10.285  -0.843  -2.221  0.00  0.00    +0.000 A 
ATOM      3  C   UNL     1       9.562  -0.590  -3.359  0.00  0.00    +0.000 A 
ATOM      4  C   UNL     1       8.349  -1.201  -3.579  0.00  0.00    +0.000 A 
ATOM      5  C   UNL     1       7.869  -2.107  -2.644  0.00  0.00    +0.000 A 
ATOM      6  C   UNL     1       8.589  -2.361  -1.494  0.00  0.00    +0.000 A 
ENDROOT
BRANCH   1   8
ATOM      7  C   UNL     1      10.579  -3.349   0.352  0.00  0.00    +0.000 C 
ATOM      8  O   UNL     1      10.451  -2.007  -0.128  0.00  0.00    +0.000 OA
ENDBRANCH   1   8
BRANCH   4   9
ATOM      9  C   UNL     1       7.523  -0.942  -4.789  0.00  0.00    +0.000 C 
ATOM     10  O   UNL     1       7.490  -1.808  -5.627  0.00  0.00    +0.000 OA
BRANCH   9  11
ATOM     11  C   UNL     1       6.690   0.257  -5.012  0.00  0.00    +0.000 A 
ATOM     12  C   UNL     1       5.312   0.100  -5.154  0.00  0.00    +0.000 A 
ATOM     13  C   UNL     1       4.495   1.191  -5.341  0.00  0.00    +0.000 A 
ATOM     14  C   UNL     1       5.030   2.464  -5.397  0.00  0.00    +0.000 A 
ATOM     15  C   UNL     1       6.392   2.629  -5.246  0.00  0.00    +0.000 A 
ATOM     16  C   UNL     1       7.206   1.528  -5.047  0.00  0.00    +0.000 A 
ENDBRANCH   9  11
ENDBRANCH   4   9
BRANCH   5  17
ATOM     17  O   UNL     1       6.680  -2.726  -2.885  0.00  0.00    +0.000 OA
ATOM     18  H   UNL     1       6.538  -3.207  -3.738  0.00  0.00    +0.000 HD
ENDBRANCH   5  17
TORSDOF 4
ENDMDL
MODEL 8
REMARK VINA RESULT:      -5.0     13.026     15.883
REMARK  Name = ox2_shuffle_esm0_ligand
REMARK  5 active torsions:
REMARK  status: ('A' for Active; 'I' for Inactive)
REMARK    1  A    between atoms: C_1  and  O_2
REMARK    2  A    between atoms: O_2  and  C_3
REMARK    3  A    between atoms: C_6  and  C_7
REMARK    4  A    between atoms: C_7  and  C_9
REMARK    5  A    between atoms: C_15  and  O_16
REMARK                            x       y       z     vdW  Elec       q    Type
REMARK                         _______ _______ _______ _____ _____    ______ ____
ROOT
ATOM      1  C   UNL     1       1.546   7.572   5.961  0.00  0.00    +0.000 A 
ATOM      2  C   UNL     1       2.282   7.035   4.911  0.00  0.00    +0.000 A 
ATOM      3  C   UNL     1       1.755   7.031   3.644  0.00  0.00    +0.000 A 
ATOM      4  C   UNL     1       0.509   7.558   3.393  0.00  0.00    +0.000 A 
ATOM      5  C   UNL     1      -0.232   8.075   4.446  0.00  0.00    +0.000 A 
ATOM      6  C   UNL     1       0.297   8.088   5.722  0.00  0.00    +0.000 A 
ENDROOT
BRANCH   1   8
ATOM      7  C   UNL     1       1.402   8.443   8.218  0.00  0.00    +0.000 C 
ATOM      8  O   UNL     1       2.024   7.622   7.224  0.00  0.00    +0.000 OA
ENDBRANCH   1   8
BRANCH   4   9
ATOM      9  C   UNL     1      -0.093   7.593   2.033  0.00  0.00    +0.000 C 
ATOM     10  O   UNL     1       0.079   8.592   1.381  0.00  0.00    +0.000 OA
BRANCH   9  11
ATOM     11  C   UNL     1      -0.825   6.479   1.395  0.00  0.00    +0.000 A 
ATOM     12  C   UNL     1      -1.157   6.581   0.045  0.00  0.00    +0.000 A 
ATOM     13  C   UNL     1      -1.819   5.558  -0.594  0.00  0.00    +0.000 A 
ATOM     14  C   UNL     1      -2.169   4.413   0.094  0.00  0.00    +0.000 A 
ATOM     15  C   UNL     1      -1.833   4.299   1.428  0.00  0.00    +0.000 A 
ATOM     16  C   UNL     1      -1.158   5.327   2.062  0.00  0.00    +0.000 A 
ENDBRANCH   9  11
ENDBRANCH   4   9
BRANCH   5  17
ATOM     17  O   UNL     1      -1.474   8.570   4.190  0.00  0.00    +0.000 OA
ATOM     18  H   UNL     1      -2.257   8.216   4.682  0.00  0.00    +0.000 HD
ENDBRANCH   5  17
TORSDOF 4
ENDMDL
MODEL 9
REMARK VINA RESULT:      -4.9      2.040      2.567
REMARK  Name = ox2_shuffle_esm0_ligand
REMARK  5 active torsions:
REMARK  status: ('A' for Active; 'I' for Inactive)
REMARK    1  A    between atoms: C_1  and  O_2
REMARK    2  A    between atoms: O_2  and  C_3
REMARK    3  A    between atoms: C_6  and  C_7
REMARK    4  A    between atoms: C_7  and  C_9
REMARK    5  A    between atoms: C_15  and  O_16
REMARK                            x       y       z     vdW  Elec       q    Type
REMARK                         _______ _______ _______ _____ _____    ______ ____
ROOT
ATOM      1  C   UNL     1      -5.375   1.197  -4.191  0.00  0.00    +0.000 A 
ATOM      2  C   UNL     1      -4.756   0.848  -5.385  0.00  0.00    +0.000 A 
ATOM      3  C   UNL     1      -5.430   0.083  -6.303  0.00  0.00    +0.000 A 
ATOM      4  C   UNL     1      -6.718  -0.339  -6.064  0.00  0.00    +0.000 A 
ATOM      5  C   UNL     1      -7.327  -0.007  -4.862  0.00  0.00    +0.000 A 
ATOM      6  C   UNL     1      -6.654   0.768  -3.938  0.00  0.00    +0.000 A 
ENDROOT
BRANCH   1   8
ATOM      7  C   UNL     1      -3.586   1.515  -2.588  0.00  0.00    +0.000 C 
ATOM      8  O   UNL     1      -4.766   1.965  -3.260  0.00  0.00    +0.000 OA
ENDBRANCH   1   8
BRANCH   4   9
ATOM      9  C   UNL     1      -7.494  -1.153  -7.038  0.00  0.00    +0.000 C 
ATOM     10  O   UNL     1      -8.405  -0.605  -7.608  0.00  0.00    +0.000 OA
BRANCH   9  11
ATOM     11  C   UNL     1      -7.198  -2.551  -7.410  0.00  0.00    +0.000 A 
ATOM     12  C   UNL     1      -7.951  -3.573  -6.832  0.00  0.00    +0.000 A 
ATOM     13  C   UNL     1      -7.723  -4.888  -7.167  0.00  0.00    +0.000 A 
ATOM     14  C   UNL     1      -6.740  -5.219  -8.079  0.00  0.00    +0.000 A 
ATOM     15  C   UNL     1      -5.999  -4.212  -8.664  0.00  0.00    +0.000 A 
ATOM     16  C   UNL     1      -6.240  -2.890  -8.332  0.00  0.00    +0.000 A 
ENDBRANCH   9  11
ENDBRANCH   4   9
BRANCH   5  17
ATOM     17  O   UNL     1      -8.591  -0.452  -4.625  0.00  0.00    +0.000 OA
ATOM     18  H   UNL     1      -8.816  -0.859  -3.750  0.00  0.00    +0.000 HD
ENDBRANCH   5  17
TORSDOF 4
ENDMDL
