REMARK  Name = ox3_orig_f8_ligand
REMARK  5 active torsions:
REMARK  status: ('A' for Active; 'I' for Inactive)
REMARK    1  A    between atoms: C_1  and  O_2
REMARK    2  A    between atoms: O_2  and  C_3
REMARK    3  A    between atoms: C_6  and  C_7
REMARK    4  A    between atoms: C_7  and  C_9
REMARK    5  A    between atoms: C_15  and  O_16
REMARK                            x       y       z     vdW  Elec       q    Type
REMARK                         _______ _______ _______ _____ _____    ______ ____
ROOT
ATOM      1  C   UNL     1       9.078 -11.201   7.589  0.00  0.00    +0.000 A 
ATOM      2  C   UNL     1       8.880 -10.364   8.689  0.00  0.00    +0.000 A 
ATOM      3  C   UNL     1       8.303  -9.116   8.515  0.00  0.00    +0.000 A 
ATOM      4  C   UNL     1       7.913  -8.689   7.249  0.00  0.00    +0.000 A 
ATOM      5  C   UNL     1       8.125  -9.530   6.156  0.00  0.00    +0.000 A 
ATOM      6  C   UNL     1       8.707 -10.778   6.338  0.00  0.00    +0.000 A 
ENDROOT
BRANCH   1   8
ATOM      7  C   UNL     1      10.151 -12.890   8.965  0.00  0.00    +0.000 C 
ATOM      8  O   UNL     1       9.643 -12.447   7.707  0.00  0.00    +0.000 OA
ENDBRANCH   1   8
BRANCH   4   9
ATOM      9  C   UNL     1       7.295  -7.335   7.044  0.00  0.00    +0.000 C 
ATOM     10  O   UNL     1       7.074  -6.973   5.913  0.00  0.00    +0.000 OA
BRANCH   9  11
ATOM     11  C   UNL     1       6.986  -6.420   8.170  0.00  0.00    +0.000 A 
ATOM     12  C   UNL     1       6.285  -6.856   9.286  0.00  0.00    +0.000 A 
ATOM     13  C   UNL     1       5.980  -5.971  10.304  0.00  0.00    +0.000 A 
ATOM     14  C   UNL     1       6.408  -4.659  10.254  0.00  0.00    +0.000 A 
ATOM     15  C   UNL     1       7.094  -4.211   9.138  0.00  0.00    +0.000 A 
ATOM     16  C   UNL     1       7.368  -5.082   8.082  0.00  0.00    +0.000 A 
ENDBRANCH   9  11
ENDBRANCH   4   9
BRANCH   5  17
ATOM     17  O   UNL     1       7.769  -9.111   4.909  0.00  0.00    +0.000 OA
ATOM     18  H   UNL     1       7.916  -9.701   4.128  0.00  0.00    +0.000 HD
ENDBRANCH   5  17
TORSDOF 4
