REMARK  Name = /Users/cafierom/python_mac/peptidebuilder/runs/oxybenzone/dock/ox3_orig_f8_rf3apo/ox3_orig_f8_rf3apo_protein.pdb
REMARK                            x       y       z     vdW  Elec       q    Type
REMARK                         _______ _______ _______ _____ _____    ______ ____
ATOM      1  N   ASP A   1     -12.700  -5.142   3.732  0.00  0.00    +0.000 NA
ATOM      2  CA  ASP A   1     -12.118  -3.833   3.678  0.00  0.00    +0.000 C 
ATOM      3  C   ASP A   1     -10.589  -3.933   3.580  0.00  0.00    +0.000 C 
ATOM      4  O   ASP A   1      -9.982  -4.774   4.240  0.00  0.00    +0.000 OA
ATOM      5  CB  ASP A   1     -12.519  -3.003   4.902  0.00  0.00    +0.000 C 
ATOM      6  CG  ASP A   1     -13.992  -2.641   4.908  0.00  0.00    +0.000 C 
ATOM      7  OD1 ASP A   1     -14.566  -2.536   3.824  0.00  0.00    +0.000 OA
ATOM      8  OD2 ASP A   1     -14.537  -2.475   6.008  0.00  0.00    +0.000 OA
ATOM      9  N   GLY A   2     -10.031  -3.153   2.671  0.00  0.00    +0.000 N 
ATOM     10  CA  GLY A   2      -8.612  -3.091   2.562  0.00  0.00    +0.000 C 
ATOM     11  C   GLY A   2      -7.986  -2.319   3.691  0.00  0.00    +0.000 C 
ATOM     12  O   GLY A   2      -8.616  -1.471   4.320  0.00  0.00    +0.000 OA
ATOM     13  N   GLY A   3      -6.765  -2.654   4.039  0.00  0.00    +0.000 N 
ATOM     14  CA  GLY A   3      -6.043  -1.967   5.078  0.00  0.00    +0.000 C 
ATOM     15  C   GLY A   3      -4.642  -1.603   4.654  0.00  0.00    +0.000 C 
ATOM     16  O   GLY A   3      -4.240  -1.852   3.527  0.00  0.00    +0.000 OA
ATOM     17  N   GLU A   4      -3.961  -0.932   5.523  0.00  0.00    +0.000 N 
ATOM     18  CA  GLU A   4      -2.580  -0.565   5.285  0.00  0.00    +0.000 C 
ATOM     19  C   GLU A   4      -1.653  -1.766   5.438  0.00  0.00    +0.000 C 
ATOM     20  O   GLU A   4      -1.899  -2.645   6.290  0.00  0.00    +0.000 OA
ATOM     21  CB  GLU A   4      -2.156   0.544   6.233  0.00  0.00    +0.000 C 
ATOM     22  CG  GLU A   4      -2.863   1.874   5.991  0.00  0.00    +0.000 C 
ATOM     23  CD  GLU A   4      -2.378   2.960   6.927  0.00  0.00    +0.000 C 
ATOM     24  OE1 GLU A   4      -2.812   4.136   6.702  0.00  0.00    +0.000 OA
ATOM     25  OE2 GLU A   4      -1.624   2.673   7.839  0.00  0.00    +0.000 OA
ATOM     26  N   GLY A   5      -0.696  -1.826   4.583  0.00  0.00    +0.000 N 
ATOM     27  CA  GLY A   5       0.309  -2.847   4.722  0.00  0.00    +0.000 C 
ATOM     28  C   GLY A   5       1.253  -2.611   5.858  0.00  0.00    +0.000 C 
ATOM     29  O   GLY A   5       1.330  -1.515   6.431  0.00  0.00    +0.000 OA
ATOM     30  N   GLY A   6       1.922  -3.645   6.284  0.00  0.00    +0.000 N 
ATOM     31  CA  GLY A   6       2.922  -3.545   7.313  0.00  0.00    +0.000 C 
ATOM     32  C   GLY A   6       4.178  -2.877   6.847  0.00  0.00    +0.000 C 
ATOM     33  O   GLY A   6       4.461  -2.844   5.655  0.00  0.00    +0.000 OA
ATOM     34  N   ILE A   7       4.847  -2.287   7.758  0.00  0.00    +0.000 N 
ATOM     35  CA  ILE A   7       6.137  -1.674   7.482  0.00  0.00    +0.000 C 
ATOM     36  C   ILE A   7       7.247  -2.673   7.751  0.00  0.00    +0.000 C 
ATOM     37  O   ILE A   7       7.217  -3.375   8.754  0.00  0.00    +0.000 OA
ATOM     38  CB  ILE A   7       6.352  -0.384   8.332  0.00  0.00    +0.000 C 
ATOM     39  CG1 ILE A   7       5.265   0.635   8.012  0.00  0.00    +0.000 C 
ATOM     40  CG2 ILE A   7       7.716   0.216   8.100  0.00  0.00    +0.000 C 
ATOM     41  CD1 ILE A   7       5.243   1.850   8.932  0.00  0.00    +0.000 C 
ATOM     42  N   GLY A   8       8.164  -2.746   6.844  0.00  0.00    +0.000 N 
ATOM     43  CA  GLY A   8       9.333  -3.591   7.029  0.00  0.00    +0.000 C 
ATOM     44  C   GLY A   8       9.140  -4.981   6.446  0.00  0.00    +0.000 C 
ATOM     45  O   GLY A   8       9.910  -5.895   6.764  0.00  0.00    +0.000 OA
ATOM     46  N   GLY A   9       8.109  -5.167   5.649  0.00  0.00    +0.000 N 
ATOM     47  CA  GLY A   9       7.886  -6.433   4.984  0.00  0.00    +0.000 C 
ATOM     48  C   GLY A   9       6.655  -7.137   5.488  0.00  0.00    +0.000 C 
ATOM     49  O   GLY A   9       6.144  -6.870   6.560  0.00  0.00    +0.000 OA
ATOM     50  N   GLY A  10       6.137  -7.997   4.650  0.00  0.00    +0.000 N 
ATOM     51  CA  GLY A  10       4.951  -8.782   4.975  0.00  0.00    +0.000 C 
ATOM     52  C   GLY A  10       3.752  -8.436   4.141  0.00  0.00    +0.000 C 
ATOM     53  O   GLY A  10       3.841  -7.686   3.180  0.00  0.00    +0.000 OA
ATOM     54  N   SER A  11       2.669  -9.057   4.519  0.00  0.00    +0.000 N 
ATOM     55  CA  SER A  11       1.423  -8.847   3.801  0.00  0.00    +0.000 C 
ATOM     56  C   SER A  11       0.663  -7.679   4.357  0.00  0.00    +0.000 C 
ATOM     57  O   SER A  11       0.656  -7.422   5.567  0.00  0.00    +0.000 OA
ATOM     58  CB  SER A  11       0.565 -10.110   3.882  0.00  0.00    +0.000 C 
ATOM     59  OG  SER A  11       1.191 -11.198   3.237  0.00  0.00    +0.000 OA
ATOM     60  N   GLY A  12       0.068  -6.898   3.440  0.00  0.00    +0.000 N 
ATOM     61  CA  GLY A  12      -0.843  -5.840   3.844  0.00  0.00    +0.000 C 
ATOM     62  C   GLY A  12      -2.192  -6.371   4.227  0.00  0.00    +0.000 C 
ATOM     63  O   GLY A  12      -2.405  -7.569   4.378  0.00  0.00    +0.000 OA
ATOM     64  N   GLY A  13      -3.110  -5.457   4.483  0.00  0.00    +0.000 N 
ATOM     65  CA  GLY A  13      -4.444  -5.808   4.938  0.00  0.00    +0.000 C 
ATOM     66  C   GLY A  13      -5.141  -6.746   3.979  0.00  0.00    +0.000 C 
ATOM     67  O   GLY A  13      -5.675  -7.774   4.377  0.00  0.00    +0.000 OA
ATOM     68  N   TRP A  14      -5.086  -6.411   2.722  0.00  0.00    +0.000 N 
ATOM     69  CA  TRP A  14      -5.734  -7.252   1.708  0.00  0.00    +0.000 C 
ATOM     70  C   TRP A  14      -4.829  -7.492   0.503  0.00  0.00    +0.000 C 
ATOM     71  O   TRP A  14      -5.011  -8.457  -0.214  0.00  0.00    +0.000 OA
ATOM     72  CB  TRP A  14      -7.026  -6.617   1.254  0.00  0.00    +0.000 C 
ATOM     73  CG  TRP A  14      -8.015  -7.624   0.735  0.00  0.00    +0.000 C 
ATOM     74  CD1 TRP A  14      -8.187  -8.035  -0.543  0.00  0.00    +0.000 C 
ATOM     75  CD2 TRP A  14      -9.006  -8.324   1.490  0.00  0.00    +0.000 C 
ATOM     76  NE1 TRP A  14      -9.223  -8.961  -0.628  0.00  0.00    +0.000 NA
ATOM     77  CE2 TRP A  14      -9.716  -9.142   0.611  0.00  0.00    +0.000 C 
ATOM     78  CE3 TRP A  14      -9.354  -8.341   2.867  0.00  0.00    +0.000 C 
ATOM     79  CZ2 TRP A  14     -10.775  -9.994   1.050  0.00  0.00    +0.000 C 
ATOM     80  CZ3 TRP A  14     -10.381  -9.154   3.294  0.00  0.00    +0.000 C 
ATOM     81  CH2 TRP A  14     -11.084  -9.959   2.405  0.00  0.00    +0.000 C 
ATOM     82  N   GLY A  15      -3.884  -6.637   0.325  0.00  0.00    +0.000 N 
ATOM     83  CA  GLY A  15      -2.932  -6.796  -0.763  0.00  0.00    +0.000 C 
ATOM     84  C   GLY A  15      -1.612  -7.354  -0.286  0.00  0.00    +0.000 C 
ATOM     85  O   GLY A  15      -1.328  -7.417   0.914  0.00  0.00    +0.000 OA
ATOM     86  N   ASP A  16      -0.844  -7.810  -1.234  0.00  0.00    +0.000 N 
ATOM     87  CA  ASP A  16       0.467  -8.334  -0.927  0.00  0.00    +0.000 C 
ATOM     88  C   ASP A  16       1.484  -7.237  -0.790  0.00  0.00    +0.000 C 
ATOM     89  O   ASP A  16       1.502  -6.285  -1.563  0.00  0.00    +0.000 OA
ATOM     90  CB  ASP A  16       0.906  -9.332  -2.007  0.00  0.00    +0.000 C 
ATOM     91  CG  ASP A  16       0.076 -10.609  -2.015  0.00  0.00    +0.000 C 
ATOM     92  OD1 ASP A  16      -0.471 -10.952  -0.961  0.00  0.00    +0.000 OA
ATOM     93  OD2 ASP A  16      -0.006 -11.222  -3.077  0.00  0.00    +0.000 OA
ATOM     94  N   GLY A  17       2.296  -7.344   0.212  0.00  0.00    +0.000 N 
ATOM     95  CA  GLY A  17       3.437  -6.464   0.323  0.00  0.00    +0.000 C 
ATOM     96  C   GLY A  17       4.583  -6.910  -0.550  0.00  0.00    +0.000 C 
ATOM     97  O   GLY A  17       4.587  -8.014  -1.086  0.00  0.00    +0.000 OA
ATOM     98  N   PHE A  18       5.506  -6.025  -0.789  0.00  0.00    +0.000 N 
ATOM     99  CA  PHE A  18       6.701  -6.314  -1.583  0.00  0.00    +0.000 C 
ATOM    100  C   PHE A  18       7.929  -6.181  -0.726  0.00  0.00    +0.000 C 
ATOM    101  O   PHE A  18       8.269  -5.116  -0.244  0.00  0.00    +0.000 OA
ATOM    102  CB  PHE A  18       6.788  -5.382  -2.794  0.00  0.00    +0.000 C 
ATOM    103  CG  PHE A  18       5.624  -5.537  -3.756  0.00  0.00    +0.000 A 
ATOM    104  CD1 PHE A  18       5.643  -6.544  -4.724  0.00  0.00    +0.000 A 
ATOM    105  CD2 PHE A  18       4.552  -4.660  -3.690  0.00  0.00    +0.000 A 
ATOM    106  CE1 PHE A  18       4.550  -6.681  -5.598  0.00  0.00    +0.000 A 
ATOM    107  CE2 PHE A  18       3.482  -4.818  -4.581  0.00  0.00    +0.000 A 
ATOM    108  CZ  PHE A  18       3.494  -5.828  -5.524  0.00  0.00    +0.000 A 
ATOM    109  N   GLY A  19       8.610  -7.295  -0.505  0.00  0.00    +0.000 N 
ATOM    110  CA  GLY A  19       9.940  -7.411   0.049  0.00  0.00    +0.000 C 
ATOM    111  C   GLY A  19      10.275  -6.411   1.122  0.00  0.00    +0.000 C 
ATOM    112  O   GLY A  19      11.413  -6.345   1.585  0.00  0.00    +0.000 OA
ATOM    113  N   GLY A  20       9.371  -5.644   1.560  0.00  0.00    +0.000 N 
ATOM    114  CA  GLY A  20       9.527  -4.566   2.526  0.00  0.00    +0.000 C 
ATOM    115  C   GLY A  20       8.822  -3.303   2.077  0.00  0.00    +0.000 C 
ATOM    116  O   GLY A  20       8.693  -3.014   0.907  0.00  0.00    +0.000 OA
ATOM    117  N   GLY A  21       8.243  -2.624   3.008  0.00  0.00    +0.000 N 
ATOM    118  CA  GLY A  21       7.516  -1.415   2.722  0.00  0.00    +0.000 C 
ATOM    119  C   GLY A  21       6.024  -1.575   2.972  0.00  0.00    +0.000 C 
ATOM    120  O   GLY A  21       5.608  -2.405   3.749  0.00  0.00    +0.000 OA
ATOM    121  N   LEU A  22       5.292  -0.723   2.317  0.00  0.00    +0.000 N 
ATOM    122  CA  LEU A  22       3.843  -0.688   2.501  0.00  0.00    +0.000 C 
ATOM    123  C   LEU A  22       3.171  -1.701   1.599  0.00  0.00    +0.000 C 
ATOM    124  O   LEU A  22       3.570  -1.902   0.440  0.00  0.00    +0.000 OA
ATOM    125  CB  LEU A  22       3.294   0.708   2.218  0.00  0.00    +0.000 C 
ATOM    126  CG  LEU A  22       3.749   1.815   3.145  0.00  0.00    +0.000 C 
ATOM    127  CD1 LEU A  22       3.236   3.169   2.646  0.00  0.00    +0.000 C 
ATOM    128  CD2 LEU A  22       3.299   1.570   4.572  0.00  0.00    +0.000 C 
ATOM    129  N   GLY A  23       2.219  -2.402   2.132  0.00  0.00    +0.000 N 
ATOM    130  CA  GLY A  23       1.372  -3.263   1.330  0.00  0.00    +0.000 C 
ATOM    131  C   GLY A  23       0.355  -2.492   0.530  0.00  0.00    +0.000 C 
ATOM    132  O   GLY A  23       0.326  -1.263   0.543  0.00  0.00    +0.000 OA
ATOM    133  N   GLY A  24      -0.437  -3.217  -0.236  0.00  0.00    +0.000 N 
ATOM    134  CA  GLY A  24      -1.435  -2.610  -1.089  0.00  0.00    +0.000 C 
ATOM    135  C   GLY A  24      -2.750  -2.402  -0.378  0.00  0.00    +0.000 C 
ATOM    136  O   GLY A  24      -2.959  -2.876   0.730  0.00  0.00    +0.000 OA
ATOM    137  N   TYR A  25      -3.545  -1.598  -0.999  0.00  0.00    +0.000 N 
ATOM    138  CA  TYR A  25      -4.927  -1.415  -0.604  0.00  0.00    +0.000 C 
ATOM    139  C   TYR A  25      -5.821  -2.287  -1.462  0.00  0.00    +0.000 C 
ATOM    140  O   TYR A  25      -5.595  -2.412  -2.671  0.00  0.00    +0.000 OA
ATOM    141  CB  TYR A  25      -5.329   0.053  -0.735  0.00  0.00    +0.000 C 
ATOM    142  CG  TYR A  25      -4.785   0.931   0.362  0.00  0.00    +0.000 A 
ATOM    143  CD1 TYR A  25      -3.454   1.306   0.382  0.00  0.00    +0.000 A 
ATOM    144  CD2 TYR A  25      -5.623   1.378   1.368  0.00  0.00    +0.000 A 
ATOM    145  CE1 TYR A  25      -2.948   2.124   1.392  0.00  0.00    +0.000 A 
ATOM    146  CE2 TYR A  25      -5.142   2.195   2.379  0.00  0.00    +0.000 A 
ATOM    147  CZ  TYR A  25      -3.789   2.562   2.382  0.00  0.00    +0.000 A 
ATOM    148  OH  TYR A  25      -3.335   3.364   3.392  0.00  0.00    +0.000 OA
ATOM    149  N   GLY A  26      -6.760  -2.945  -0.833  0.00  0.00    +0.000 N 
ATOM    150  CA  GLY A  26      -7.673  -3.749  -1.583  0.00  0.00    +0.000 C 
ATOM    151  C   GLY A  26      -9.112  -3.432  -1.312  0.00  0.00    +0.000 C 
ATOM    152  O   GLY A  26      -9.460  -2.611  -0.460  0.00  0.00    +0.000 OA
ATOM    153  N   SER A  27     -10.003  -4.020  -2.122  0.00  0.00    +0.000 N 
ATOM    154  CA  SER A  27     -11.456  -3.884  -1.936  0.00  0.00    +0.000 C 
ATOM    155  C   SER A  27     -11.973  -5.020  -1.096  0.00  0.00    +0.000 C 
ATOM    156  O   SER A  27     -11.362  -6.091  -1.001  0.00  0.00    +0.000 OA
ATOM    157  CB  SER A  27     -12.152  -3.868  -3.300  0.00  0.00    +0.000 C 
ATOM    158  OG  SER A  27     -11.911  -5.085  -3.989  0.00  0.00    +0.000 OA
ATOM    159  H   ASP A   1     -12.419  -5.673   2.908  0.00  0.00    +0.000 HD
ATOM    160  H   ASP A   1     -13.717  -5.061   3.754  0.00  0.00    +0.000 HD
ATOM    161  H   ASP A   1     -14.040  -2.571   6.796  0.00  0.00    +0.000 HD
ATOM    162  H   GLY A   2     -10.595  -2.615   2.070  0.00  0.00    +0.000 HD
ATOM    163  H   GLY A   3      -6.327  -3.402   3.572  0.00  0.00    +0.000 HD
ATOM    164  H   GLU A   4      -4.391  -0.664   6.367  0.00  0.00    +0.000 HD
ATOM    165  H   GLU A   4      -1.340   1.787   7.951  0.00  0.00    +0.000 HD
ATOM    166  H   GLY A   5      -0.651  -1.181   3.841  0.00  0.00    +0.000 HD
ATOM    167  H   GLY A   6       1.736  -4.527   5.887  0.00  0.00    +0.000 HD
ATOM    168  H   ILE A   7       4.481  -2.245   8.671  0.00  0.00    +0.000 HD
ATOM    169  H   GLY A   8       8.070  -2.222   6.016  0.00  0.00    +0.000 HD
ATOM    170  H   GLY A   9       7.475  -4.428   5.502  0.00  0.00    +0.000 HD
ATOM    171  H   GLY A  10       6.562  -8.119   3.770  0.00  0.00    +0.000 HD
ATOM    172  H   SER A  11       2.696  -9.668   5.291  0.00  0.00    +0.000 HD
ATOM    173  H   SER A  11       2.038 -11.386   3.670  0.00  0.00    +0.000 HD
ATOM    174  H   GLY A  12       0.251  -7.044   2.484  0.00  0.00    +0.000 HD
ATOM    175  H   GLY A  13      -2.883  -4.507   4.362  0.00  0.00    +0.000 HD
ATOM    176  H   TRP A  14      -4.610  -5.593   2.451  0.00  0.00    +0.000 HD
ATOM    177  H   GLY A  15      -3.804  -5.866   0.932  0.00  0.00    +0.000 HD
ATOM    178  H   ASP A  16      -1.159  -7.798  -2.167  0.00  0.00    +0.000 HD
ATOM    179  H   ASP A  16      -0.364 -10.434  -0.188  0.00  0.00    +0.000 HD
ATOM    180  H   GLY A  17       2.136  -8.028   0.902  0.00  0.00    +0.000 HD
ATOM    181  H   PHE A  18       5.396  -5.119  -0.419  0.00  0.00    +0.000 HD
ATOM    182  H   GLY A  19       8.161  -8.138  -0.745  0.00  0.00    +0.000 HD
ATOM    183  H   GLY A  20       8.463  -5.792   1.210  0.00  0.00    +0.000 HD
ATOM    184  H   GLY A  21       8.300  -2.941   3.938  0.00  0.00    +0.000 HD
ATOM    185  H   LEU A  22       5.719  -0.095   1.690  0.00  0.00    +0.000 HD
ATOM    186  H   GLY A  23       2.068  -2.348   3.103  0.00  0.00    +0.000 HD
ATOM    187  H   GLY A  24      -0.346  -4.197  -0.227  0.00  0.00    +0.000 HD
ATOM    188  H   TYR A  25      -3.200  -1.091  -1.769  0.00  0.00    +0.000 HD
ATOM    189  H   TYR A  25      -2.435   3.623   3.416  0.00  0.00    +0.000 HD
ATOM    190  H   GLY A  26      -6.837  -2.887   0.147  0.00  0.00    +0.000 HD
ATOM    191  H   SER A  27      -9.672  -4.565  -2.872  0.00  0.00    +0.000 HD
ATOM    192  H   SER A  27     -12.260  -5.826  -3.469  0.00  0.00    +0.000 HD
TER 
