MODEL 1
REMARK VINA RESULT:      -4.0      0.000      0.000
REMARK  Name = ox3_orig_f8_ligand
REMARK  5 active torsions:
REMARK  status: ('A' for Active; 'I' for Inactive)
REMARK    1  A    between atoms: C_1  and  O_2
REMARK    2  A    between atoms: O_2  and  C_3
REMARK    3  A    between atoms: C_6  and  C_7
REMARK    4  A    between atoms: C_7  and  C_9
REMARK    5  A    between atoms: C_15  and  O_16
REMARK                            x       y       z     vdW  Elec       q    Type
REMARK                         _______ _______ _______ _____ _____    ______ ____
ROOT
ATOM      1  C   UNL     1       7.336 -11.024   2.867  0.00  0.00    +0.000 A 
ATOM      2  C   UNL     1       7.275 -10.297   1.677  0.00  0.00    +0.000 A 
ATOM      3  C   UNL     1       6.089 -10.234   0.963  0.00  0.00    +0.000 A 
ATOM      4  C   UNL     1       4.951 -10.889   1.427  0.00  0.00    +0.000 A 
ATOM      5  C   UNL     1       5.027 -11.621   2.612  0.00  0.00    +0.000 A 
ATOM      6  C   UNL     1       6.221 -11.681   3.320  0.00  0.00    +0.000 A 
ENDROOT
BRANCH   1   8
ATOM      7  C   UNL     1       9.298  -9.962   3.828  0.00  0.00    +0.000 C 
ATOM      8  O   UNL     1       8.486 -11.116   3.613  0.00  0.00    +0.000 OA
ENDBRANCH   1   8
BRANCH   4   9
ATOM      9  C   UNL     1       3.661 -10.838   0.659  0.00  0.00    +0.000 C 
ATOM     10  O   UNL     1       2.813 -10.056   1.017  0.00  0.00    +0.000 OA
BRANCH   9  11
ATOM     11  C   UNL     1       3.380 -11.734  -0.489  0.00  0.00    +0.000 A 
ATOM     12  C   UNL     1       3.925 -11.498  -1.744  0.00  0.00    +0.000 A 
ATOM     13  C   UNL     1       3.616 -12.330  -2.804  0.00  0.00    +0.000 A 
ATOM     14  C   UNL     1       2.805 -13.434  -2.625  0.00  0.00    +0.000 A 
ATOM     15  C   UNL     1       2.244 -13.669  -1.381  0.00  0.00    +0.000 A 
ATOM     16  C   UNL     1       2.510 -12.810  -0.313  0.00  0.00    +0.000 A 
ENDBRANCH   9  11
ENDBRANCH   4   9
BRANCH   5  17
ATOM     17  O   UNL     1       3.925 -12.285   3.061  0.00  0.00    +0.000 OA
ATOM     18  H   UNL     1       3.375 -12.814   2.431  0.00  0.00    +0.000 HD
ENDBRANCH   5  17
TORSDOF 4
ENDMDL
MODEL 2
REMARK VINA RESULT:      -3.8      1.189      2.184
REMARK  Name = ox3_orig_f8_ligand
REMARK  5 active torsions:
REMARK  status: ('A' for Active; 'I' for Inactive)
REMARK    1  A    between atoms: C_1  and  O_2
REMARK    2  A    between atoms: O_2  and  C_3
REMARK    3  A    between atoms: C_6  and  C_7
REMARK    4  A    between atoms: C_7  and  C_9
REMARK    5  A    between atoms: C_15  and  O_16
REMARK                            x       y       z     vdW  Elec       q    Type
REMARK                         _______ _______ _______ _____ _____    ______ ____
ROOT
ATOM      1  C   UNL     1       6.886 -11.622   3.518  0.00  0.00    +0.000 A 
ATOM      2  C   UNL     1       5.664 -12.262   3.734  0.00  0.00    +0.000 A 
ATOM      3  C   UNL     1       4.602 -12.036   2.873  0.00  0.00    +0.000 A 
ATOM      4  C   UNL     1       4.744 -11.177   1.788  0.00  0.00    +0.000 A 
ATOM      5  C   UNL     1       5.967 -10.535   1.588  0.00  0.00    +0.000 A 
ATOM      6  C   UNL     1       7.026 -10.764   2.457  0.00  0.00    +0.000 A 
ENDROOT
BRANCH   1   8
ATOM      7  C   UNL     1       7.879 -12.695   5.458  0.00  0.00    +0.000 C 
ATOM      8  O   UNL     1       7.970 -11.813   4.340  0.00  0.00    +0.000 OA
ENDBRANCH   1   8
BRANCH   4   9
ATOM      9  C   UNL     1       3.599 -10.915   0.851  0.00  0.00    +0.000 C 
ATOM     10  O   UNL     1       2.902  -9.949   1.057  0.00  0.00    +0.000 OA
BRANCH   9  11
ATOM     11  C   UNL     1       3.273 -11.814  -0.282  0.00  0.00    +0.000 A 
ATOM     12  C   UNL     1       2.444 -12.916  -0.118  0.00  0.00    +0.000 A 
ATOM     13  C   UNL     1       2.187 -13.757  -1.185  0.00  0.00    +0.000 A 
ATOM     14  C   UNL     1       2.704 -13.491  -2.437  0.00  0.00    +0.000 A 
ATOM     15  C   UNL     1       3.544 -12.404  -2.607  0.00  0.00    +0.000 A 
ATOM     16  C   UNL     1       3.850 -11.573  -1.528  0.00  0.00    +0.000 A 
ENDBRANCH   9  11
ENDBRANCH   4   9
BRANCH   5  17
ATOM     17  O   UNL     1       6.108  -9.672   0.542  0.00  0.00    +0.000 OA
ATOM     18  H   UNL     1       6.232 -10.023  -0.375  0.00  0.00    +0.000 HD
ENDBRANCH   5  17
TORSDOF 4
ENDMDL
MODEL 3
REMARK VINA RESULT:      -3.6      1.965      6.242
REMARK  Name = ox3_orig_f8_ligand
REMARK  5 active torsions:
REMARK  status: ('A' for Active; 'I' for Inactive)
REMARK    1  A    between atoms: C_1  and  O_2
REMARK    2  A    between atoms: O_2  and  C_3
REMARK    3  A    between atoms: C_6  and  C_7
REMARK    4  A    between atoms: C_7  and  C_9
REMARK    5  A    between atoms: C_15  and  O_16
REMARK                            x       y       z     vdW  Elec       q    Type
REMARK                         _______ _______ _______ _____ _____    ______ ____
ROOT
ATOM      1  C   UNL     1       5.192 -12.264  -1.387  0.00  0.00    +0.000 A 
ATOM      2  C   UNL     1       6.578 -12.216  -1.232  0.00  0.00    +0.000 A 
ATOM      3  C   UNL     1       7.138 -11.410  -0.253  0.00  0.00    +0.000 A 
ATOM      4  C   UNL     1       6.328 -10.649   0.584  0.00  0.00    +0.000 A 
ATOM      5  C   UNL     1       4.944 -10.699   0.413  0.00  0.00    +0.000 A 
ATOM      6  C   UNL     1       4.390 -11.506  -0.572  0.00  0.00    +0.000 A 
ENDROOT
BRANCH   1   8
ATOM      7  C   UNL     1       3.214 -12.841  -2.673  0.00  0.00    +0.000 C 
ATOM      8  O   UNL     1       4.586 -13.047  -2.339  0.00  0.00    +0.000 OA
ENDBRANCH   1   8
BRANCH   4   9
ATOM      9  C   UNL     1       6.921  -9.765   1.643  0.00  0.00    +0.000 C 
ATOM     10  O   UNL     1       6.687  -8.581   1.596  0.00  0.00    +0.000 OA
BRANCH   9  11
ATOM     11  C   UNL     1       7.808 -10.284   2.712  0.00  0.00    +0.000 A 
ATOM     12  C   UNL     1       7.430 -11.355   3.511  0.00  0.00    +0.000 A 
ATOM     13  C   UNL     1       8.263 -11.795   4.523  0.00  0.00    +0.000 A 
ATOM     14  C   UNL     1       9.500 -11.215   4.725  0.00  0.00    +0.000 A 
ATOM     15  C   UNL     1       9.879 -10.136   3.945  0.00  0.00    +0.000 A 
ATOM     16  C   UNL     1       9.028  -9.652   2.950  0.00  0.00    +0.000 A 
ENDBRANCH   9  11
ENDBRANCH   4   9
BRANCH   5  17
ATOM     17  O   UNL     1       4.142  -9.938   1.212  0.00  0.00    +0.000 OA
ATOM     18  H   UNL     1       4.540  -9.241   1.791  0.00  0.00    +0.000 HD
ENDBRANCH   5  17
TORSDOF 4
ENDMDL
MODEL 4
REMARK VINA RESULT:      -3.6      1.868      5.797
REMARK  Name = ox3_orig_f8_ligand
REMARK  5 active torsions:
REMARK  status: ('A' for Active; 'I' for Inactive)
REMARK    1  A    between atoms: C_1  and  O_2
REMARK    2  A    between atoms: O_2  and  C_3
REMARK    3  A    between atoms: C_6  and  C_7
REMARK    4  A    between atoms: C_7  and  C_9
REMARK    5  A    between atoms: C_15  and  O_16
REMARK                            x       y       z     vdW  Elec       q    Type
REMARK                         _______ _______ _______ _____ _____    ______ ____
ROOT
ATOM      1  C   UNL     1       3.143 -13.841  -2.219  0.00  0.00    +0.000 A 
ATOM      2  C   UNL     1       4.293 -13.053  -2.286  0.00  0.00    +0.000 A 
ATOM      3  C   UNL     1       4.543 -12.105  -1.307  0.00  0.00    +0.000 A 
ATOM      4  C   UNL     1       3.655 -11.934  -0.248  0.00  0.00    +0.000 A 
ATOM      5  C   UNL     1       2.503 -12.720  -0.197  0.00  0.00    +0.000 A 
ATOM      6  C   UNL     1       2.259 -13.666  -1.184  0.00  0.00    +0.000 A 
ENDROOT
BRANCH   1   8
ATOM      7  C   UNL     1       3.183 -16.163  -2.928  0.00  0.00    +0.000 C 
ATOM      8  O   UNL     1       2.850 -14.795  -3.162  0.00  0.00    +0.000 OA
ENDBRANCH   1   8
BRANCH   4   9
ATOM      9  C   UNL     1       3.907 -10.904   0.816  0.00  0.00    +0.000 C 
ATOM     10  O   UNL     1       3.063 -10.061   1.007  0.00  0.00    +0.000 OA
BRANCH   9  11
ATOM     11  C   UNL     1       5.162 -10.862   1.605  0.00  0.00    +0.000 A 
ATOM     12  C   UNL     1       6.146  -9.915   1.353  0.00  0.00    +0.000 A 
ATOM     13  C   UNL     1       7.321  -9.924   2.081  0.00  0.00    +0.000 A 
ATOM     14  C   UNL     1       7.517 -10.836   3.099  0.00  0.00    +0.000 A 
ATOM     15  C   UNL     1       6.549 -11.794   3.348  0.00  0.00    +0.000 A 
ATOM     16  C   UNL     1       5.378 -11.826   2.589  0.00  0.00    +0.000 A 
ENDBRANCH   9  11
ENDBRANCH   4   9
BRANCH   5  17
ATOM     17  O   UNL     1       1.616 -12.543   0.822  0.00  0.00    +0.000 OA
ATOM     18  H   UNL     1       1.745 -13.020   1.679  0.00  0.00    +0.000 HD
ENDBRANCH   5  17
TORSDOF 4
ENDMDL
MODEL 5
REMARK VINA RESULT:      -3.6      2.059      6.313
REMARK  Name = ox3_orig_f8_ligand
REMARK  5 active torsions:
REMARK  status: ('A' for Active; 'I' for Inactive)
REMARK    1  A    between atoms: C_1  and  O_2
REMARK    2  A    between atoms: O_2  and  C_3
REMARK    3  A    between atoms: C_6  and  C_7
REMARK    4  A    between atoms: C_7  and  C_9
REMARK    5  A    between atoms: C_15  and  O_16
REMARK                            x       y       z     vdW  Elec       q    Type
REMARK                         _______ _______ _______ _____ _____    ______ ____
ROOT
ATOM      1  C   UNL     1       4.232 -12.169   0.203  0.00  0.00    +0.000 A 
ATOM      2  C   UNL     1       4.362 -12.032   1.587  0.00  0.00    +0.000 A 
ATOM      3  C   UNL     1       5.320 -11.180   2.112  0.00  0.00    +0.000 A 
ATOM      4  C   UNL     1       6.156 -10.453   1.269  0.00  0.00    +0.000 A 
ATOM      5  C   UNL     1       6.024 -10.605  -0.111  0.00  0.00    +0.000 A 
ATOM      6  C   UNL     1       5.063 -11.464  -0.630  0.00  0.00    +0.000 A 
ENDROOT
BRANCH   1   8
ATOM      7  C   UNL     1       2.150 -13.406   0.375  0.00  0.00    +0.000 C 
ATOM      8  O   UNL     1       3.298 -12.997  -0.368  0.00  0.00    +0.000 OA
ENDBRANCH   1   8
BRANCH   4   9
ATOM      9  C   UNL     1       7.206  -9.533   1.824  0.00  0.00    +0.000 C 
ATOM     10  O   UNL     1       6.979  -8.346   1.835  0.00  0.00    +0.000 OA
BRANCH   9  11
ATOM     11  C   UNL     1       8.516 -10.023   2.319  0.00  0.00    +0.000 A 
ATOM     12  C   UNL     1       9.253  -9.305   3.251  0.00  0.00    +0.000 A 
ATOM     13  C   UNL     1      10.488  -9.769   3.666  0.00  0.00    +0.000 A 
ATOM     14  C   UNL     1      10.985 -10.972   3.203  0.00  0.00    +0.000 A 
ATOM     15  C   UNL     1      10.265 -11.686   2.261  0.00  0.00    +0.000 A 
ATOM     16  C   UNL     1       9.038 -11.206   1.798  0.00  0.00    +0.000 A 
ENDBRANCH   9  11
ENDBRANCH   4   9
BRANCH   5  17
ATOM     17  O   UNL     1       6.854  -9.916  -0.944  0.00  0.00    +0.000 OA
ATOM     18  H   UNL     1       7.397 -10.402  -1.615  0.00  0.00    +0.000 HD
ENDBRANCH   5  17
TORSDOF 4
ENDMDL
MODEL 6
REMARK VINA RESULT:      -3.4      2.168      2.992
REMARK  Name = ox3_orig_f8_ligand
REMARK  5 active torsions:
REMARK  status: ('A' for Active; 'I' for Inactive)
REMARK    1  A    between atoms: C_1  and  O_2
REMARK    2  A    between atoms: O_2  and  C_3
REMARK    3  A    between atoms: C_6  and  C_7
REMARK    4  A    between atoms: C_7  and  C_9
REMARK    5  A    between atoms: C_15  and  O_16
REMARK                            x       y       z     vdW  Elec       q    Type
REMARK                         _______ _______ _______ _____ _____    ______ ____
ROOT
ATOM      1  C   UNL     1       9.204 -11.104   3.337  0.00  0.00    +0.000 A 
ATOM      2  C   UNL     1       9.110 -12.145   2.411  0.00  0.00    +0.000 A 
ATOM      3  C   UNL     1       8.342 -11.988   1.268  0.00  0.00    +0.000 A 
ATOM      4  C   UNL     1       7.664 -10.796   1.031  0.00  0.00    +0.000 A 
ATOM      5  C   UNL     1       7.757  -9.767   1.968  0.00  0.00    +0.000 A 
ATOM      6  C   UNL     1       8.526  -9.933   3.113  0.00  0.00    +0.000 A 
ENDROOT
BRANCH   1   8
ATOM      7  C   UNL     1       9.659 -10.382   5.610  0.00  0.00    +0.000 C 
ATOM      8  O   UNL     1       9.952 -11.207   4.483  0.00  0.00    +0.000 OA
ENDBRANCH   1   8
BRANCH   4   9
ATOM      9  C   UNL     1       6.820 -10.616  -0.199  0.00  0.00    +0.000 C 
ATOM     10  O   UNL     1       7.231  -9.890  -1.073  0.00  0.00    +0.000 OA
BRANCH   9  11
ATOM     11  C   UNL     1       5.494 -11.261  -0.359  0.00  0.00    +0.000 A 
ATOM     12  C   UNL     1       4.467 -11.040   0.548  0.00  0.00    +0.000 A 
ATOM     13  C   UNL     1       3.253 -11.684   0.393  0.00  0.00    +0.000 A 
ATOM     14  C   UNL     1       3.024 -12.514  -0.687  0.00  0.00    +0.000 A 
ATOM     15  C   UNL     1       4.047 -12.753  -1.588  0.00  0.00    +0.000 A 
ATOM     16  C   UNL     1       5.293 -12.146  -1.418  0.00  0.00    +0.000 A 
ENDBRANCH   9  11
ENDBRANCH   4   9
BRANCH   5  17
ATOM     17  O   UNL     1       7.077  -8.605   1.757  0.00  0.00    +0.000 OA
ATOM     18  H   UNL     1       7.387  -7.969   1.066  0.00  0.00    +0.000 HD
ENDBRANCH   5  17
TORSDOF 4
ENDMDL
MODEL 7
REMARK VINA RESULT:      -3.2     11.989     13.402
REMARK  Name = ox3_orig_f8_ligand
REMARK  5 active torsions:
REMARK  status: ('A' for Active; 'I' for Inactive)
REMARK    1  A    between atoms: C_1  and  O_2
REMARK    2  A    between atoms: O_2  and  C_3
REMARK    3  A    between atoms: C_6  and  C_7
REMARK    4  A    between atoms: C_7  and  C_9
REMARK    5  A    between atoms: C_15  and  O_16
REMARK                            x       y       z     vdW  Elec       q    Type
REMARK                         _______ _______ _______ _____ _____    ______ ____
ROOT
ATOM      1  C   UNL     1       1.475  -6.542  10.130  0.00  0.00    +0.000 A 
ATOM      2  C   UNL     1       0.833  -5.959  11.224  0.00  0.00    +0.000 A 
ATOM      3  C   UNL     1      -0.269  -5.142  11.026  0.00  0.00    +0.000 A 
ATOM      4  C   UNL     1      -0.747  -4.899   9.742  0.00  0.00    +0.000 A 
ATOM      5  C   UNL     1      -0.091  -5.479   8.655  0.00  0.00    +0.000 A 
ATOM      6  C   UNL     1       1.015  -6.294   8.861  0.00  0.00    +0.000 A 
ENDROOT
BRANCH   1   8
ATOM      7  C   UNL     1       3.673  -7.246   9.374  0.00  0.00    +0.000 C 
ATOM      8  O   UNL     1       2.569  -7.360  10.271  0.00  0.00    +0.000 OA
ENDBRANCH   1   8
BRANCH   4   9
ATOM      9  C   UNL     1      -1.934  -4.009   9.511  0.00  0.00    +0.000 C 
ATOM     10  O   UNL     1      -2.944  -4.504   9.071  0.00  0.00    +0.000 OA
BRANCH   9  11
ATOM     11  C   UNL     1      -1.897  -2.548   9.767  0.00  0.00    +0.000 A 
ATOM     12  C   UNL     1      -2.991  -1.877  10.296  0.00  0.00    +0.000 A 
ATOM     13  C   UNL     1      -2.940  -0.509  10.489  0.00  0.00    +0.000 A 
ATOM     14  C   UNL     1      -1.791   0.204  10.210  0.00  0.00    +0.000 A 
ATOM     15  C   UNL     1      -0.700  -0.453   9.666  0.00  0.00    +0.000 A 
ATOM     16  C   UNL     1      -0.755  -1.827   9.423  0.00  0.00    +0.000 A 
ENDBRANCH   9  11
ENDBRANCH   4   9
BRANCH   5  17
ATOM     17  O   UNL     1      -0.536  -5.228   7.392  0.00  0.00    +0.000 OA
ATOM     18  H   UNL     1      -0.478  -5.932   6.698  0.00  0.00    +0.000 HD
ENDBRANCH   5  17
TORSDOF 4
ENDMDL
MODEL 8
REMARK VINA RESULT:      -3.2     11.579     13.227
REMARK  Name = ox3_orig_f8_ligand
REMARK  5 active torsions:
REMARK  status: ('A' for Active; 'I' for Inactive)
REMARK    1  A    between atoms: C_1  and  O_2
REMARK    2  A    between atoms: O_2  and  C_3
REMARK    3  A    between atoms: C_6  and  C_7
REMARK    4  A    between atoms: C_7  and  C_9
REMARK    5  A    between atoms: C_15  and  O_16
REMARK                            x       y       z     vdW  Elec       q    Type
REMARK                         _______ _______ _______ _____ _____    ______ ____
ROOT
ATOM      1  C   UNL     1       1.275  -6.972   9.942  0.00  0.00    +0.000 A 
ATOM      2  C   UNL     1       1.355  -6.175  11.086  0.00  0.00    +0.000 A 
ATOM      3  C   UNL     1       0.766  -4.921  11.099  0.00  0.00    +0.000 A 
ATOM      4  C   UNL     1       0.091  -4.446   9.979  0.00  0.00    +0.000 A 
ATOM      5  C   UNL     1       0.027  -5.247   8.838  0.00  0.00    +0.000 A 
ATOM      6  C   UNL     1       0.622  -6.502   8.832  0.00  0.00    +0.000 A 
ENDROOT
BRANCH   1   8
ATOM      7  C   UNL     1       2.286  -8.746   8.628  0.00  0.00    +0.000 C 
ATOM      8  O   UNL     1       1.839  -8.222   9.878  0.00  0.00    +0.000 OA
ENDBRANCH   1   8
BRANCH   4   9
ATOM      9  C   UNL     1      -0.544  -3.084   9.975  0.00  0.00    +0.000 C 
ATOM     10  O   UNL     1      -1.745  -3.013  10.074  0.00  0.00    +0.000 OA
BRANCH   9  11
ATOM     11  C   UNL     1       0.244  -1.837   9.817  0.00  0.00    +0.000 A 
ATOM     12  C   UNL     1      -0.345  -0.659   9.378  0.00  0.00    +0.000 A 
ATOM     13  C   UNL     1       0.423   0.478   9.205  0.00  0.00    +0.000 A 
ATOM     14  C   UNL     1       1.769   0.478   9.511  0.00  0.00    +0.000 A 
ATOM     15  C   UNL     1       2.369  -0.696   9.934  0.00  0.00    +0.000 A 
ATOM     16  C   UNL     1       1.615  -1.864  10.069  0.00  0.00    +0.000 A 
ENDBRANCH   9  11
ENDBRANCH   4   9
BRANCH   5  17
ATOM     17  O   UNL     1      -0.612  -4.781   7.728  0.00  0.00    +0.000 OA
ATOM     18  H   UNL     1      -1.170  -3.965   7.783  0.00  0.00    +0.000 HD
ENDBRANCH   5  17
TORSDOF 4
ENDMDL
MODEL 9
REMARK VINA RESULT:      -3.2      2.108      3.511
REMARK  Name = ox3_orig_f8_ligand
REMARK  5 active torsions:
REMARK  status: ('A' for Active; 'I' for Inactive)
REMARK    1  A    between atoms: C_1  and  O_2
REMARK    2  A    between atoms: O_2  and  C_3
REMARK    3  A    between atoms: C_6  and  C_7
REMARK    4  A    between atoms: C_7  and  C_9
REMARK    5  A    between atoms: C_15  and  O_16
REMARK                            x       y       z     vdW  Elec       q    Type
REMARK                         _______ _______ _______ _____ _____    ______ ____
ROOT
ATOM      1  C   UNL     1       8.879 -12.521   4.379  0.00  0.00    +0.000 A 
ATOM      2  C   UNL     1       7.508 -12.362   4.593  0.00  0.00    +0.000 A 
ATOM      3  C   UNL     1       6.758 -11.580   3.729  0.00  0.00    +0.000 A 
ATOM      4  C   UNL     1       7.360 -10.953   2.642  0.00  0.00    +0.000 A 
ATOM      5  C   UNL     1       8.732 -11.111   2.443  0.00  0.00    +0.000 A 
ATOM      6  C   UNL     1       9.478 -11.894   3.316  0.00  0.00    +0.000 A 
ENDROOT
BRANCH   1   8
ATOM      7  C   UNL     1       9.641 -13.081   6.615  0.00  0.00    +0.000 C 
ATOM      8  O   UNL     1       9.667 -13.286   5.203  0.00  0.00    +0.000 OA
ENDBRANCH   1   8
BRANCH   4   9
ATOM      9  C   UNL     1       6.561 -10.095   1.702  0.00  0.00    +0.000 C 
ATOM     10  O   UNL     1       6.777  -8.907   1.690  0.00  0.00    +0.000 OA
BRANCH   9  11
ATOM     11  C   UNL     1       5.499 -10.647   0.825  0.00  0.00    +0.000 A 
ATOM     12  C   UNL     1       4.157 -10.556   1.169  0.00  0.00    +0.000 A 
ATOM     13  C   UNL     1       3.192 -11.112   0.349  0.00  0.00    +0.000 A 
ATOM     14  C   UNL     1       3.537 -11.717  -0.843  0.00  0.00    +0.000 A 
ATOM     15  C   UNL     1       4.874 -11.826  -1.186  0.00  0.00    +0.000 A 
ATOM     16  C   UNL     1       5.862 -11.311  -0.345  0.00  0.00    +0.000 A 
ENDBRANCH   9  11
ENDBRANCH   4   9
BRANCH   5  17
ATOM     17  O   UNL     1       9.335 -10.481   1.396  0.00  0.00    +0.000 OA
ATOM     18  H   UNL     1       9.698  -9.568   1.511  0.00  0.00    +0.000 HD
ENDBRANCH   5  17
TORSDOF 4
ENDMDL
